/*--------------------------------*- C++ -*----------------------------------*\
| =========                 |                                                 |
| \\      /  F ield         | OpenFOAM: The Open Source CFD Toolbox           |
|  \\    /   O peration     | Version:  2112                                  |
|   \\  /    A nd           | Website:  www.openfoam.com                      |
|    \\/     M anipulation  |                                                 |
\*---------------------------------------------------------------------------*/
FoamFile
{
    version     2.0;
    format      ascii;
    arch        "LSB;label=32;scalar=64";
    class       volScalarField;
    location    "0";
    object      Cy;
}
// * * * * * * * * * * * * * * * * * * * * * * * * * * * * * * * * * * * * * //

dimensions      [0 1 0 0 0 0 0];

internalField   nonuniform List<scalar> 
5000
(
0
0
-3.64195022e-23
-7.68692605e-23
-7.67821e-23
1.12983805e-22
7.66080921e-23
0
0
0
7.62613253e-23
3.60286859e-23
4.01030429e-23
-7.60023395e-23
0
0
0
-1.11428945e-22
-7.55727603e-23
0
0
3.97168837e-23
0
0
0
7.08581379e-23
3.95041443e-23
7.4805977e-23
0
0
0
7.44678315e-23
0
0
-3.50488809e-23
-1.832695e-22
0
0
0
3.48394309e-23
0
0
0
7.34630675e-23
0
1.46594016e-22
0
-7.31313447e-23
0
3.44242792e-23
-7.28835946e-23
0
0
0
0
3.41775658e-23
1.06527379e-22
1.06404688e-22
0
3.4014074e-23
0
0
0
0
0
0
0
-7.14963846e-23
-6.72981405e-23
0
0
3.35282751e-23
3.34881058e-23
0
0
1.37589073e-22
0
0
0
7.05340607e-23
0
0
4.11752127e-24
7.43338708e-23
-6.60196381e-23
-3.29702715e-23
-6.58615431e-23
-4.11752127e-24
0
0
0
0
-3.26947622e-23
-1.02084298e-22
-6.93504587e-23
-3.6694914e-23
0
0
0
3.2421555e-23
3.23827121e-23
-1.01149271e-22
-1.01033019e-22
0
0
0
3.21506313e-23
0
0
-6.40704293e-23
-3.1996835e-23
0
0
0
-9.96488422e-23
3.18056243e-23
6.76525591e-23
0
6.75004136e-23
0
0
0
-9.87370609e-23
0
6.70461588e-23
0
1.02401959e-22
9.81716194e-23
3.13138057e-23
9.79463917e-23
0
3.53189149e-23
3.11640135e-23
0
-3.52069064e-23
0
6.61473938e-23
0
-4.11752127e-24
0
0
0
-6.5702836e-23
-3.07557655e-23
0
0
-6.54082357e-23
6.12172861e-23
0
3.05353451e-23
-3.04987613e-23
-3.04622232e-23
0
-6.48960711e-23
3.0352868e-23
6.0633007e-23
0
-9.4849236e-23
0
-6.44604829e-23
3.01353332e-23
-4.11752127e-24
-9.43070309e-23
1.58370802e-22
0
0
-6.39562388e-23
2.98835144e-23
-5.96954234e-23
0
2.97762359e-23
0
-2.97049323e-23
9.31255535e-23
0
-6.33141128e-23
-6.32431911e-23
-9.26997731e-23
0
-2.94567085e-23
-9.23817759e-23
5.87723391e-23
0
2.93157996e-23
0
0
0
0
0
-6.2328917e-23
0
-1.20261519e-22
2.90012125e-23
6.61679783e-23
-6.19810498e-23
0
0
6.17733271e-23
-5.75867322e-23
6.16352617e-23
-2.87244146e-23
-6.14975256e-23
0
3.273882e-23
0
0
1.50827804e-22
2.84843851e-23
0
6.09498694e-23
0
0
8.90600151e-23
0
5.64927241e-23
-4.11752127e-24
-5.63574411e-23
5.62899219e-23
-8.84512482e-23
0
0
0
-2.79767685e-23
5.58865012e-23
0
0
0
0
2.77762633e-23
5.54859728e-23
2.77097491e-23
0
0
2.76102743e-23
0
-3.16616788e-23
3.16286792e-23
0
0
0
0
0
0
-5.86800532e-23
-3.13661032e-23
0
5.84841816e-23
0
0
1.12460507e-22
-5.82241135e-23
0
5.80945463e-23
-5.80298783e-23
-2.69238835e-23
0
0
0
0
0
0
8.42142209e-23
0
0
2.66030542e-23
-1.14519774e-22
0
5.3015106e-23
0
0
5.69423148e-23
0
2.6349146e-23
5.263516e-23
2.62860475e-23
0
8.27868243e-23
0
0
1.65008837e-22
4.11752127e-24
-5.21327812e-23
2.60351682e-23
0
0
5.60009263e-23
-5.59387621e-23
8.17562721e-23
2.58485746e-23
0
0
-5.56290786e-23
2.57249275e-23
0
0
0
0
8.08311035e-23
0
0
0
0
-5.08367666e-23
-2.53879314e-23
0
0
-2.52967895e-23
-2.11489626e-23
-5.04724352e-23
0
0
0
0
0
5.42282243e-23
0
0
4.99308159e-23
0
-4.98112368e-23
0
2.48459805e-23
2.4816215e-23
-1.81740426e-22
-5.36310924e-23
5.35717753e-23
0
0
0
0
-7.78555965e-23
0
0
0
0
0
0
0
0
7.29468085e-23
-4.85729372e-23
-2.42573683e-23
-7.68024575e-23
-5.25160907e-23
0
1.97248217e-22
0
0
-1.28508404e-22
7.6195067e-23
5.2111659e-23
7.60224756e-23
2.39396013e-23
0
-4.7764549e-23
4.7707329e-23
2.38250835e-23
0
-5.16535877e-23
2.37395541e-23
2.37111139e-23
0
9.87348621e-23
5.13695052e-23
-5.13128963e-23
-2.35694218e-23
-4.70823609e-23
0
-1.96113516e-22
0
-5.09746592e-23
0
2.33724646e-23
-7.4150904e-23
0
0
0
0
0
0
0
0
0
0
2.30386566e-23
0
0
9.59413063e-23
0
-4.99194665e-23
0
0
0
1.44983582e-22
4.11752127e-24
7.2328064e-23
0
0
-4.53104496e-23
0
0
0
0
0
1.83753376e-23
0
0
-9.37659835e-23
0
7.11928544e-23
-4.87808317e-23
0
-1.41904114e-22
0
-6.66744857e-23
0
0
0
0
0
-4.41310956e-23
0
-2.61302304e-23
0
-2.19599972e-23
0
0
2.18811639e-23
4.78274202e-23
0
0
4.76705057e-23
0
0
-4.75141575e-23
4.11752127e-24
0
0
0
0
4.30856138e-23
0
-9.00823982e-23
0
-1.79753108e-22
-6.83597258e-23
-6.82827687e-23
-4.11752127e-24
0
4.11752127e-24
0
-8.91599176e-23
4.65877787e-23
-4.65368974e-23
0
0
0
-4.63339737e-23
-4.21658835e-23
8.83482537e-23
1.34429745e-22
-4.20145099e-23
-2.09820893e-23
0
4.59812076e-23
0
0
8.75443163e-23
8.74443664e-23
0
8.72448383e-23
0
0
-4.5531968e-23
-4.5482357e-23
0
0
-4.53338583e-23
0
4.52351563e-23
2.05341866e-23
0
2.04850138e-23
0
0
0
-4.48915636e-23
0
8.54703407e-23
2.03138341e-23
0
0
0
0
0
-4.44540162e-23
0
-4.43574312e-23
0
0
0
-4.41649384e-23
1.68232777e-22
3.99515164e-23
-4.40211729e-23
-4.39733674e-23
0
0
0
-8.34479018e-23
-3.96176677e-23
-1.26945656e-22
0
0
-1.6183015e-22
-8.28793431e-23
0
0
-1.65193234e-22
-8.25025855e-23
0
-1.25531097e-22
0
-4.3122576e-23
0
-4.30291629e-23
0
0
4.11752127e-24
0
-1.20154849e-22
0
0
0
-4.26116135e-23
-4.25654862e-23
4.25194309e-23
7.67118011e-23
0
8.06456281e-23
-3.82182026e-23
3.81724235e-23
3.81266845e-23
0
0
0
0
3.78988439e-23
1.59648804e-22
1.1754179e-22
0
0
-4.17898812e-23
0
0
0
-1.16593968e-22
0
1.16324629e-22
0
0
0
0
-3.71788623e-23
0
0
0
1.15120554e-22
-3.69566756e-23
-1.92797068e-22
7.7853884e-23
0
0
0
0
-7.74132434e-23
0
0
0
0
0
1.49658372e-22
0
0
3.62545899e-23
0
-3.61677741e-23
0
0
-7.61933856e-23
0
7.60207873e-23
-3.59085654e-23
0
-3.58225718e-23
-7.56768462e-23
3.98543106e-23
0
7.5419946e-23
7.53345274e-23
0
7.51639846e-23
7.50788606e-23
-3.95556871e-23
-7.490894e-23
3.53533056e-23
3.9428465e-23
7.4654812e-23
-3.5226389e-23
3.93017066e-23
0
-1.09417314e-22
0
0
-1.13156819e-22
0
0
-7.38142785e-23
0
0
0
3.46816762e-23
1.08037883e-22
0
0
0
-1.07540793e-22
0
0
-3.43506626e-23
0
0
0
3.83038624e-23
0
0
-3.40636177e-23
0
-3.39820445e-23
3.39413367e-23
1.39720187e-22
0
0
-3.78964918e-23
3.78560265e-23
0
0
0
0
0
-3.76142274e-23
0
7.0950498e-23
3.33764556e-23
-3.33364704e-23
7.07105769e-23
-4.11752127e-24
0
0
3.31372523e-23
0
3.30578998e-23
0
0
-3.70567488e-23
-1.02816817e-22
0
3.28209783e-23
-6.96808383e-23
0
0
0
0
0
0
0
6.49375576e-23
0
0
0
0
6.86670165e-23
0
6.85124386e-23
3.21588854e-23
0
3.2081877e-23
0
1.0013267e-22
0
-9.99027441e-23
-1.35795674e-22
-3.18519511e-23
0
3.17756714e-23
-9.93303424e-23
0
0
-3.57411938e-23
-3.15857849e-23
3.5665466e-23
1.30158129e-22
0
0
3.13970324e-23
-6.68363542e-23
0
-6.66861577e-23
-9.78580418e-23
3.12094053e-23
0
0
-3.1097368e-23
6.21202199e-23
0
3.09857318e-23
0
0
0
3.0837506e-23
0
0
0
-3.48075132e-23
0
3.06165022e-23
-3.46973434e-23
-3.05431853e-23
0
0
-3.45510593e-23
0
3.03606612e-23
0
6.46934358e-23
0
0
0
6.44036572e-23
0
-6.42592943e-23
6.41872465e-23
-3.41163992e-23
0
0
0
0
-6.3756735e-23
6.36852843e-23
0
6.35426421e-23
1.26942886e-22
6.75178592e-23
-1.22541087e-22
9.28288083e-23
0
-2.94996112e-23
0
2.94289699e-23
0
0
0
-9.19821157e-23
-2.92531057e-23
-3.33355815e-23
-6.24836295e-23
9.1561795e-23
-1.24687729e-22
-2.90782913e-23
0
0
0
-3.30567124e-23
0
0
0
-2.88007595e-23
0
0
0
6.14434926e-23
-9.00034659e-23
0
-3.26776097e-23
0
-6.11009163e-23
6.10326511e-23
-4.11752127e-24
0
6.08283305e-23
0
0
6.06247503e-23
5.64395319e-23
2.81859535e-23
0
-1.48827349e-22
0
1.16322031e-22
-2.80175164e-23
0
2.7950427e-23
2.79169382e-23
-8.77679989e-23
5.57001796e-23
0
0
8.73678486e-23
0
-3.1801178e-23
-8.70689862e-23
0
0
0
-3.16357419e-23
-2.74852536e-23
0
1.13795261e-22
0
-8.61788461e-23
5.87595266e-23
0
0
0
0
0
-2.71251976e-23
0
0
-1.12228808e-22
0
0
-5.79791132e-23
0
-1.1158274e-22
0
-8.45234372e-23
-1.37966822e-22
0
0
0
0
0
0
0
2.65143602e-23
0
-2.6450867e-23
0
0
-2.63559101e-23
1.66181046e-22
-3.04103185e-23
0
0
-1.39227089e-22
-8.26185864e-23
0
-2.61043621e-23
5.21461742e-23
0
-5.20212994e-23
-5.19589745e-23
0
0
3.00037465e-23
2.99727332e-23
0
0
0
-2.5731533e-23
-2.57007026e-23
0
8.10349925e-23
-2.5608442e-23
5.52730427e-23
-2.966464e-23
0
0
5.09108134e-23
0
0
0
2.53336377e-23
0
-7.99364392e-23
2.52426936e-23
0
0
0
0
-5.4301209e-23
0
-2.91492795e-23
0
-2.49718161e-23
-9.97675995e-23
4.98240296e-23
7.87640362e-23
0
0
0
7.84069503e-23
0
4.94076906e-23
0
0
2.46151608e-23
0
0
-2.86443183e-23
-7.76097522e-23
0
5.29950192e-23
0
0
0
0
-2.42927047e-23
4.85271993e-23
1.29407698e-22
0
0
2.41475341e-23
0
-7.63866439e-23
-2.81783665e-23
1.52427158e-22
0
4.79489385e-23
0
0
0
0
0
0
0
0
-9.89863298e-23
0
-1.02876668e-22
-4.72641216e-23
0
-4.71509378e-23
0
-7.46745598e-23
5.10991951e-23
5.10429112e-23
0
1.4455657e-22
0
0
5.07624862e-23
0
0
0
1.24289625e-22
7.3666849e-23
0
0
0
-9.64063628e-23
0
-4.60339153e-23
-5.0096288e-23
0
4.11752127e-24
-2.29068548e-23
4.57588231e-23
2.2852e-23
9.54160108e-23
4.55945573e-23
0
0
0
-1.89740823e-22
-2.26610439e-23
-9.46530907e-23
0
0
0
0
-4.49972687e-23
0
0
0
0
-4.47283716e-23
0
0
0
0
9.30396736e-23
4.44078089e-23
-4.11752127e-24
0
9.26142963e-23
2.2097689e-23
0
-9.22966028e-23
7.01726098e-23
2.6109504e-23
0
-1.39870948e-22
0
9.16646469e-23
0
-9.14550006e-23
-9.13503676e-23
-4.76816872e-23
0
0
-1.81866156e-22
0
0
0
0
0
0
4.71625711e-23
-2.14967387e-23
0
-1.36906622e-22
0
0
0
-4.26853526e-23
-1.36137677e-22
0
-4.66496406e-23
-8.90798418e-23
0
1.31255818e-22
8.87748393e-23
4.11752127e-24
0
0
4.62436975e-23
-4.20757078e-23
0
0
0
2.09372161e-23
-4.59417898e-23
-4.17741567e-23
4.1724108e-23
-4.57916438e-23
9.14834354e-23
0
0
0
0
6.61807015e-23
0
4.127637e-23
4.53444405e-23
0
0
0
6.56620759e-23
0
2.04657258e-23
4.49999379e-23
0
-4.49020355e-23
4.48531753e-23
0
4.06381045e-23
-4.47069401e-23
6.49287047e-23
0
8.50049291e-23
0
4.03468564e-23
0
0
0
-4.01538529e-23
0
0
1.28264171e-22
0
0
0
0
3.97706115e-23
1.67126894e-22
0
0
3.95803632e-23
-1.26833878e-22
0
8.71115962e-23
8.28995743e-23
-8.28051923e-23
8.27109154e-23
0
0
-8.24287758e-23
0
0
0
0
1.24999951e-22
0
0
0
3.8735451e-23
3.8689043e-23
-8.14029094e-23
1.19906715e-22
0
0
-8.10332041e-23
0
3.83657458e-23
0
0
0
3.81822223e-23
0
0
0
0
0
0
7.98438352e-23
-3.78177953e-23
0
0
0
-3.76368888e-23
0
0
0
7.90312182e-23
0
-4.11752127e-24
0
0
0
-1.56988646e-22
-3.71438524e-23
-4.12168691e-23
-7.82273252e-23
4.11280302e-23
0
7.7961284e-23
0
-7.77844514e-23
0
0
-4.0818758e-23
0
0
-4.11752127e-24
7.71688706e-23
3.64819126e-23
-1.53987867e-22
0
1.53638838e-22
0
0
7.65584309e-23
-3.61770596e-23
1.52769911e-22
0
0
0
0
1.51906184e-22
0
0
3.99063684e-23
0
4.11752127e-24
0
0
-1.10842435e-22
7.51822286e-23
3.96073047e-23
7.50120533e-23
0
3.53623785e-23
-1.10077563e-22
7.05553984e-23
-3.93529559e-23
0
0
0
0
0
-7.40833329e-23
0
0
3.89748448e-23
0
3.47738504e-23
0
0
0
0
7.32496133e-23
-7.31667907e-23
0
-7.30014404e-23
-1.45837815e-22
1.11313489e-22
0
6.8554404e-23
-7.25897928e-23
0
-1.06579974e-22
3.41132321e-23
0
-7.21806108e-23
0
0
3.39093737e-23
3.386875e-23
1.05602035e-22
0
0
0
0
7.13695572e-23
-6.71714637e-23
0
7.11281305e-23
-7.10478483e-23
-7.0967666e-23
0
-3.33450302e-23
-7.07276797e-23
-1.37178234e-22
3.32253247e-23
0
7.04090419e-23
0
-1.40500596e-22
-7.42885878e-23
0
0
0
-1.39710181e-22
1.02605741e-22
1.02487749e-22
6.96191023e-23
6.54231053e-23
3.67898859e-23
-6.93839602e-23
-6.93057696e-23
3.66725953e-23
0
0
0
-6.89162055e-23
1.37677152e-22
0
0
0
6.44114548e-23
6.84518035e-23
0
1.00387861e-22
-3.20516672e-23
-6.81440587e-23
-4.11752127e-24
0
-3.18983446e-23
-1.3155803e-22
0
-3.17838345e-23
-1.66963818e-22
3.17077208e-23
3.16697341e-23
0
-3.57114177e-23
9.87856576e-23
0
3.14804793e-23
0
0
-6.68524608e-23
0
-3.12923542e-23
0
0
0
0
0
0
-9.72101141e-23
6.61048975e-23
-6.60306357e-23
-9.68759236e-23
0
-6.58083768e-23
0
0
0
0
0
0
-3.47051943e-23
-6.52195763e-23
0
-6.50732574e-23
-6.50002256e-23
1.56141949e-22
0
0
0
0
0
-9.46784222e-23
9.45699414e-23
3.01146936e-23
6.42747371e-23
-3.00425694e-23
6.41306774e-23
9.40294226e-23
2.99347366e-23
-9.38140642e-23
0
0
0
2.97558405e-23
0
0
-9.30645856e-23
0
9.28515955e-23
0
0
0
0
0
-1.21581716e-22
0
8.78871276e-23
-6.26387784e-23
0
0
-6.24286711e-23
0
0
6.22193705e-23
0
-6.20802317e-23
-2.89466225e-23
0
2.88772975e-23
0
0
0
-6.15958663e-23
6.15269836e-23
0
-9.00254871e-23
0
0
-2.85331893e-23
0
0
0
0
0
-3.24462294e-23
-6.07070682e-23
-5.65217358e-23
0
8.86971105e-23
-6.04363476e-23
-6.0368874e-23
0
0
2.80247105e-23
1.48190754e-22
0
0
-8.77895171e-23
0
0
0
-8.73892016e-23
5.95654788e-23
2.76907603e-23
5.53151764e-23
0
0
0
0
0
0
0
1.13691963e-22
-2.73608045e-23
5.87735457e-23
4.11752127e-24
0
-2.72299118e-23
-5.85120966e-23
-1.12776359e-22
0
0
0
2.7034761e-23
-5.40047617e-23
0
0
-2.69054366e-23
0
2.68410104e-23
0
-2.67767362e-23
-5.76068413e-23
-8.42553635e-23
0
0
2.661672e-23
-2.65848262e-23
-2.65529782e-23
0
0
0
0
0
2.63626807e-23
1.09441886e-22
0
-5.25360682e-23
0
3.03226503e-23
2.61737372e-23
0
0
0
1.64526255e-22
0
0
0
5.59653757e-23
0
0
0
1.88834532e-22
0
0
8.12394342e-23
-2.56765061e-23
0
2.56150164e-23
0
0
0
0
-5.50414281e-23
0
5.08019346e-23
0
2.53401331e-23
0
7.99559155e-23
0
0
5.44949522e-23
0
0
0
0
-5.00763683e-23
0
1.3312614e-22
1.57924867e-22
-1.57745561e-22
0
-2.48587448e-23
4.96579082e-23
0
0
4.94796719e-23
0
0
-2.46510253e-23
2.46214799e-23
7.7893458e-23
-2.86800436e-23
5.31837154e-23
0
0
0
0
2.43864792e-23
7.71893245e-23
0
1.01313328e-22
0
-5.25990432e-23
0
-4.83654171e-23
0
0
0
0
2.40381906e-23
-1.24164491e-22
0
2.39518947e-23
-5.19639309e-23
2.38945339e-23
1.75296478e-22
-1.97197901e-23
-9.93526094e-23
0
-7.94902948e-23
0
0
0
0
0
0
0
1.49385334e-22
-4.69937355e-23
0
2.34406008e-23
-5.09425508e-23
0
0
0
0
4.65452109e-23
0
0
4.6378139e-23
0
0
-9.65407931e-23
5.02737904e-23
7.32689697e-23
0
9.60986642e-23
0
0
-2.29127331e-23
0
0
-1.22387426e-22
7.25269188e-23
0
0
0
0
0
9.46763587e-23
0
-4.92885127e-23
9.43512226e-23
-4.50628175e-23
-1.43261519e-22
0
0
1.20353173e-22
0
0
0
4.87502219e-23
-4.86967803e-23
7.09062776e-23
0
4.85367277e-23
0
4.43128289e-23
0
0
0
-4.41008769e-23
9.22135737e-23
0
0
0
0
0
0
0
0
0
0
-4.34709997e-23
0
0
0
0
-4.73287467e-23
0
0
4.11752127e-24
0
0
0
0
0
1.36477631e-22
4.26963068e-23
-1.10730439e-22
0
0
8.91016586e-23
0
0
0
0
0
0
0
4.20864936e-23
8.8189708e-23
0
0
-4.60026973e-23
0
0
4.58523301e-23
-1.083296e-22
0
4.57025127e-23
0
0
-6.62710788e-23
0
0
4.12869683e-23
0
-4.11881013e-23
0
0
8.61979958e-23
4.09910693e-23
0
8.590333e-23
0
4.49125128e-23
8.56097265e-23
0
0
0
0
0
0
0
0
0
-8.05211415e-23
0
8.44458609e-23
-4.42335674e-23
4.00679853e-23
0
0
-8.39658115e-23
0
0
1.23459976e-22
0
-4.38030736e-23
0
8.32985619e-23
0
0
0
0
4.34714736e-23
3.93067762e-23
-4.33772176e-23
0
0
4.32362699e-23
-3.90719023e-23
0
0
8.19807662e-23
0
0
0
-8.16083164e-23
0
0
3.86062989e-23
0
0
0
0
-4.24931237e-23
0
1.189686e-22
0
0
0
0
0
-4.21268527e-23
-3.79637881e-23
-7.99541664e-23
0
0
-7.96819001e-23
-7.95913723e-23
-4.18092295e-23
0
7.93204409e-23
-4.16739192e-23
7.91403478e-23
0
7.89606894e-23
-3.73767547e-23
-3.7331957e-23
0
0
-7.43959006e-23
0
0
-4.11752127e-24
1.15177521e-22
0
-1.55960505e-22
-4.10046325e-23
0
-4.11752127e-24
1.18499109e-22
0
0
0
7.72752828e-23
0
7.71000967e-23
0
3.64038973e-23
7.6838081e-23
-7.26334477e-23
0
0
0
-4.02605205e-23
0
0
0
4.0087621e-23
4.00445316e-23
3.58839681e-23
0
0
0
0
-3.56695209e-23
-3.56267898e-23
0
0
3.54988937e-23
0
0
0
0
3.52867658e-23
3.52444741e-23
0
-1.09597781e-22
0
7.42692984e-23
-7.41852425e-23
0
-7.40174415e-23
3.49081008e-23
0
0
-1.47366166e-22
0
3.88170099e-23
0
0
-7.32673857e-23
3.45334996e-23
3.86096358e-23
-7.30191268e-23
3.44095255e-23
0
0
0
0
3.8321411e-23
-1.0660629e-22
0
-1.10478399e-22
0
7.21165052e-23
3.39587624e-23
0
0
0
0
-3.78733608e-23
-3.78329039e-23
3.3674998e-23
-7.13868184e-23
3.35943589e-23
0
0
3.34737506e-23
3.34336511e-23
0
-6.67071889e-23
-1.37372023e-22
0
0
0
0
-3.31145413e-23
-7.02672841e-23
0
-1.03104527e-22
0
6.995086e-23
-6.98719681e-23
-1.02631032e-22
0
-6.96359334e-23
0
0
3.26415932e-23
0
0
0
0
0
0
0
0
0
0
0
0
-6.83912286e-23
-1.00412563e-22
1.00297219e-22
-6.81604965e-23
-3.19831235e-23
-6.80071351e-23
-3.19065378e-23
9.97224365e-23
0
3.17919931e-23
-1.35250654e-22
0
6.33557295e-23
-9.90372391e-23
0
-3.15641416e-23
-6.30526719e-23
-3.14885562e-23
0
3.14131604e-23
0
0
0
6.66433109e-23
0
-3.11880146e-23
0
0
6.62696523e-23
-6.20776668e-23
0
0
0
0
0
3.49339039e-23
0
-6.14851737e-23
0
3.47864912e-23
3.06322172e-23
0
9.57941425e-23
-3.05222526e-23
6.50889192e-23
0
0
-6.07525017e-23
0
6.47245377e-23
-3.02672077e-23
3.02309444e-23
0
-3.01585495e-23
0
3.00863235e-23
0
0
-2.99783331e-23
0
0
-4.11752127e-24
0
3.39166987e-23
0
-9.33009688e-23
-2.96922008e-23
2.96566328e-23
2.96211022e-23
0
2.95501631e-23
-4.11752127e-24
0
0
2.94088016e-23
0
3.34559096e-23
6.68415094e-23
2.92681348e-23
6.258365e-23
0
1.248873e-22
2.91281253e-23
0
0
2.90235527e-23
3.31063131e-23
0
-9.08756159e-23
2.88847261e-23
0
-1.48195285e-22
0
0
6.15417354e-23
-2.86777037e-23
0
6.13355776e-23
8.98418157e-23
0
0
0
1.21987328e-22
2.8403997e-23
4.11752127e-24
0
-6.0721593e-23
0
0
0
0
6.03833288e-23
-6.03159136e-23
-2.80655265e-23
-2.80319117e-23
0
0
0
0
8.77106895e-23
5.56620211e-23
1.19425687e-22
2.77643665e-23
-1.15041893e-22
0
0
-5.93806221e-23
0
2.75653784e-23
-8.67145695e-23
0
-5.90503647e-23
-8.64180657e-23
2.74006459e-23
0
8.61226362e-23
0
0
5.85913447e-23
1.40138875e-22
0
0
2.71066163e-23
-8.53399278e-23
0
0
0
5.80067856e-23
-5.79422043e-23
0
-3.09654191e-23
0
0
2.67515214e-23
-8.4275945e-23
-5.74924373e-23
0
2.66235544e-23
0
2.65598029e-23
0
0
2.64644531e-23
0
0
-2.63694457e-23
5.67932316e-23
3.04238164e-23
5.66670974e-23
0
5.65412525e-23
0
0
-2.61177634e-23
-3.02039983e-23
0
8.21895318e-23
-2.59928311e-23
0
0
0
-2.58684923e-23
0
-1.37267761e-22
-5.5668767e-23
0
0
0
8.10745008e-23
0
0
0
2.96471378e-23
5.51155681e-23
0
0
-2.5407493e-23
8.02486768e-23
0
8.00663712e-23
0
-1.05140132e-22
0
5.03903617e-23
-7.96124957e-23
2.51348469e-23
0
1.04416125e-22
0
0
0
0
0
0
0
0
0
0
4.94923588e-23
0
7.81782864e-23
5.34322074e-23
0
1.02510718e-22
7.78239844e-23
0
5.31375167e-23
0
5.30201203e-23
0
4.87854921e-23
0
0
0
0
0
-2.42179283e-23
0
7.65973243e-23
7.65104937e-23
0
0
-2.40443614e-23
0
0
0
-7.59055459e-23
0
0
0
0
0
7.53910494e-23
4.74587662e-23
-2.3700955e-23
0
0
0
0
4.71186354e-23
0
9.81291278e-23
0
0
-1.48746218e-22
0
1.44292237e-22
0
0
0
0
0
0
0
1.00792942e-22
-7.34527578e-23
7.33696998e-23
9.63431186e-23
0
5.01199036e-23
0
-4.58922191e-23
0
-4.9899853e-23
0
0
4.97355023e-23
0
0
0
0
0
0
0
-4.93000948e-23
0
0
9.41582807e-23
0
-4.90300958e-23
0
0
4.47513421e-23
-4.46977246e-23
2.64396066e-23
0
-4.45372635e-23
0
-9.29787624e-23
9.28722882e-23
7.06038359e-23
0
4.83355951e-23
0
7.02858084e-23
9.22361906e-23
0
0
-6.99692859e-23
-4.38485733e-23
0
0
0
0
4.35865397e-23
0
0
0
-4.74955604e-23
1.34095731e-22
0
-4.32223111e-23
0
2.1559408e-23
0
0
0
0
-4.69786575e-23
8.97371019e-23
0
0
0
8.93275409e-23
4.66714819e-23
-6.37544622e-23
0
0
0
0
-4.22489852e-23
4.63158906e-23
0
0
0
-8.811054e-23
4.60637118e-23
0
0
8.7708729e-23
0
-4.16955256e-23
0
4.5713193e-23
0
-4.56135919e-23
0
0
1.32276358e-22
0
-4.53656195e-23
-4.11986709e-23
0
0
0
4.10016019e-23
0
-4.5020926e-23
0
0
4.48740941e-23
0
0
0
0
-1.25656581e-22
0
-1.49691019e-22
4.03675831e-23
-2.09831133e-22
0
-1.24785526e-22
0
0
4.41957882e-23
4.4147783e-23
0
0
3.98865535e-23
-4.11752127e-24
-3.9791039e-23
0
0
-4.37657078e-23
3.96006945e-23
-4.36707695e-23
0
-4.35760479e-23
0
8.28455991e-23
8.27512825e-23
0
0
4.32932608e-23
8.23751343e-23
0
8.21877279e-23
0
-1.25059919e-22
8.19074655e-23
8.18142837e-23
1.24640527e-22
0
3.87089178e-23
0
0
0
0
3.84775919e-23
-3.84314977e-23
0
0
0
-8.06128173e-23
-1.18723021e-22
0
0
0
0
-3.79735427e-23
0
-3.78826036e-23
4.19547369e-23
0
3.77466103e-23
0
0
7.9339733e-23
0
-4.1638565e-23
0
0
-7.88902144e-23
0
-7.87111462e-23
3.72521307e-23
-4.11752127e-24
3.716293e-23
0
0
-3.70295138e-23
0
0
0
0
0
-3.67641329e-23
0
3.66760897e-23
0
-7.72940486e-23
0
0
0
-7.69440033e-23
0
-7.67696101e-23
-7.66825762e-23
-7.65956364e-23
-1.12704426e-22
-3.61522805e-23
-1.52670879e-22
-7.62489336e-23
0
0
0
3.58931797e-23
1.11668051e-22
0
-3.57643259e-23
0
-3.5678685e-23
0
-1.46490481e-22
0
1.10641556e-22
-1.50096915e-22
7.90810003e-23
-3.53805438e-23
0
-1.49418304e-22
0
0
0
-7.43714695e-23
0
-3.91603822e-23
0
0
7.39516344e-23
0
0
0
0
-1.42951107e-22
7.34511479e-23
0
0
7.32022569e-23
0
-6.89192957e-23
-7.29542458e-23
3.43771242e-23
-7.2789414e-23
0
0
3.42126785e-23
0
1.78888824e-22
0
0
3.40082262e-23
0
0
3.38861486e-23
0
6.76099979e-23
-3.37644985e-23
0
-7.14848017e-23
-1.05047387e-22
-7.13234776e-23
0
-1.04685058e-22
-3.7599872e-23
-3.75597579e-23
-7.09218735e-23
-1.41683647e-22
0
0
-7.06023036e-23
0
7.04430832e-23
0
0
0
0
-7.00467317e-23
3.29251091e-23
0
0
0
0
-3.27283535e-23
0
0
0
-3.25717952e-23
0
0
-6.90272493e-23
0
0
0
0
1.00900263e-22
-6.85620561e-23
0
0
0
0
0
-6.8100193e-23
0
0
0
-3.18383034e-23
-3.1800157e-23
6.76416376e-23
0
1.03293035e-22
-9.90616439e-23
0
-3.15722484e-23
0
-3.5614167e-23
-6.70353416e-23
0
0
0
0
0
3.12334495e-23
-9.77056106e-23
0
-3.11213271e-23
3.1084039e-23
-4.11752127e-24
9.71463356e-23
-6.60624282e-23
0
0
6.58400572e-23
0
0
-9.63689688e-23
3.07136418e-23
9.61480508e-23
0
0
0
0
-6.51045588e-23
-9.96060082e-23
0
-6.48856306e-23
0
3.4428811e-23
0
3.02387085e-23
0
-3.42838174e-23
-9.45079739e-23
6.43056367e-23
-9.42915267e-23
0
6.40895646e-23
1.2391793e-22
-1.23774383e-22
2.98783755e-23
-6.38026869e-23
0
0
0
-3.38173508e-23
3.37817645e-23
0
0
2.95577522e-23
2.95223445e-23
0
-3.35691675e-23
0
0
0
-3.34282828e-23
0
9.18392324e-23
6.25285977e-23
0
0
0
0
0
0
0
0
0
0
0
0
0
0
0
0
0
0
0
0
0
0
0
0
0
0
0
0
0
0
0
0
0
0
0
0
0
0
0
0
0
0
0
0
0
0
0
0
0
0
0
0
0
0
0
0
0
0
0
0
0
0
0
0
0
0
0
0
0
0
0
0
0
0
0
0
0
0
0
0
0
0
0
0
0
0
0
0
0
0
0
0
0
0
0
0
0
0
0
0
0
0
0
0
0
0
0
0
0
0
0
0
0
0
0
0
0
0
0
0
0
0
0
0
0
0
0
0
0
0
0
0
0
0
0
0
0
0
0
0
0
0
0
0
0
0
0
0
0
0
0
0
0
0
0
0
0
0
0
0
0
0
0
0
0
0
0
0
0
0
0
0
0
0
0
0
0
0
0
0
0
0
0
0
0
0
0
0
0
0
0
0
0
0
0
0
0
0
0
0
0
0
0
0
0
0
0
0
0
0
0
0
0
0
0
0
0
0
0
0
0
0
0
0
0
0
0
0
0
0
0
0
0
0
0
0
0
0
0
0
0
0
0
0
0
0
0
0
0
0
0
0
0
0
0
0
0
0
0
0
0
0
0
0
0
0
0
0
0
0
0
0
0
0
0
0
0
0
0
0
0
0
0
0
0
0
0
0
0
0
0
0
0
0
0
0
0
0
0
0
0
0
0
0
0
0
0
0
0
0
0
0
0
0
0
0
0
0
0
0
0
0
0
0
0
0
0
0
0
0
0
0
0
0
0
0
0
0
0
0
0
0
0
0
0
0
0
0
0
0
0
0
0
0
0
0
0
0
0
0
0
0
0
0
0
0
0
0
0
0
0
0
0
0
0
0
0
0
0
0
0
0
0
0
0
0
0
0
0
0
0
0
0
0
0
0
0
0
0
0
0
0
0
0
0
0
0
0
0
0
0
0
0
0
0
0
0
0
0
0
0
0
0
0
0
0
0
0
0
0
0
0
0
0
0
0
0
0
0
0
0
0
0
0
0
0
0
0
0
0
0
0
0
0
0
0
0
0
0
0
0
0
0
0
0
0
0
0
0
0
0
0
0
0
0
0
0
0
0
0
0
0
0
0
0
0
0
0
0
0
0
0
0
0
0
0
0
0
0
0
0
0
0
0
0
0
0
0
0
0
0
0
0
0
0
0
0
0
0
0
0
0
0
0
0
0
0
0
0
0
0
0
0
0
0
0
0
0
0
0
0
0
0
0
0
0
0
0
0
0
0
0
0
0
0
0
0
0
0
0
0
0
0
0
0
0
0
0
0
0
0
0
0
0
0
0
0
0
0
0
0
0
0
0
0
0
0
0
0
0
0
0
0
0
0
0
0
0
0
0
0
0
0
0
0
0
0
0
0
0
0
0
0
0
0
0
0
0
0
0
0
0
0
0
0
0
0
0
0
0
0
0
0
0
0
0
0
0
0
0
0
0
0
0
0
0
0
0
0
0
0
0
0
0
0
0
0
0
0
0
0
0
0
0
0
0
0
0
0
0
0
0
0
0
0
0
0
0
0
0
0
0
0
0
0
0
0
0
0
0
0
0
0
0
0
0
0
0
0
0
0
0
0
0
0
0
0
0
0
0
0
0
0
0
0
0
0
0
0
0
0
0
0
0
0
0
0
0
0
0
0
0
0
0
0
0
0
0
0
0
0
0
0
0
0
0
0
0
0
0
0
0
0
0
0
0
0
0
0
0
0
0
0
0
0
0
0
0
0
0
0
0
0
0
0
0
0
0
0
0
0
0
0
0
0
0
0
0
0
0
0
0
0
0
0
0
0
0
0
0
0
0
0
0
0
0
0
0
0
0
0
0
0
0
0
0
0
0
0
0
0
0
0
0
0
0
0
0
0
0
0
0
0
0
0
0
0
0
0
0
0
0
0
0
0
0
0
0
0
0
0
0
0
0
0
0
0
0
0
0
0
0
0
0
0
0
0
0
0
0
0
0
0
0
0
0
0
0
0
0
0
0
0
0
0
0
0
0
0
0
0
0
0
0
0
0
0
0
0
0
0
0
0
0
0
0
0
0
0
0
0
0
0
0
0
0
0
0
0
0
0
0
0
0
0
0
0
0
0
0
0
0
0
0
0
0
0
0
0
0
0
0
0
0
0
0
0
0
0
0
0
0
0
0
0
0
0
0
0
0
0
0
0
0
0
0
0
0
0
0
0
0
0
0
0
0
0
0
0
0
0
0
0
0
0
0
0
0
0
0
0
0
0
0
0
0
0
0
0
0
0
0
0
0
0
0
0
0
0
0
0
0
0
0
0
0
0
0
0
0
0
0
0
0
0
0
0
0
0
0
0
0
0
0
0
0
0
0
0
0
0
0
0
0
0
0
0
0
0
0
0
0
0
0
0
0
0
0
0
0
0
0
0
0
0
0
0
0
0
0
0
0
0
0
0
0
0
0
0
0
0
0
0
0
0
0
0
0
0
0
0
0
0
0
0
0
0
0
0
0
0
0
0
0
0
0
0
0
0
0
0
0
0
0
0
0
0
0
0
0
0
0
0
0
0
0
0
0
0
0
0
0
0
0
0
0
0
0
0
0
0
0
0
0
0
0
0
0
0
0
0
0
0
0
0
0
0
0
0
0
0
0
0
0
0
0
0
0
0
0
0
0
0
0
0
0
0
0
0
0
0
0
0
0
0
0
0
0
0
0
0
0
0
0
0
0
0
0
0
0
0
0
0
0
0
0
0
0
0
0
0
0
0
0
0
0
0
0
0
0
0
0
0
0
0
0
0
0
0
0
0
0
0
0
0
0
0
0
0
0
0
0
0
0
0
0
0
0
0
0
0
0
0
0
0
0
0
0
0
0
0
0
0
0
0
0
0
0
0
0
0
0
0
0
0
0
0
0
0
0
0
0
0
0
0
0
0
0
0
0
0
0
0
0
0
0
0
0
0
0
0
0
0
0
0
0
0
0
0
0
0
0
0
0
0
0
0
0
0
0
0
0
0
0
0
0
0
0
0
0
0
0
0
0
0
0
0
0
0
0
0
0
0
0
0
0
0
0
0
0
0
0
0
0
0
0
0
0
0
0
0
0
0
0
0
0
0
0
0
0
0
0
0
0
0
0
0
0
0
0
0
0
0
0
0
0
0
0
0
0
0
0
0
0
0
0
0
0
0
0
0
0
0
0
0
0
0
0
0
0
0
0
0
0
0
0
0
0
0
0
0
0
0
0
0
0
0
0
0
0
0
0
0
0
0
0
0
0
0
0
0
0
0
0
0
0
0
0
0
0
0
0
0
0
0
0
0
0
0
0
0
0
0
0
0
0
0
0
0
0
0
0
0
0
0
0
0
0
0
0
0
0
0
0
0
0
0
0
0
0
0
0
0
0
0
0
0
0
0
0
0
0
0
0
0
0
0
0
0
0
0
0
0
0
0
0
0
0
0
0
0
0
0
0
0
0
0
0
0
0
0
0
0
0
0
0
0
0
0
0
0
0
0
0
0
0
0
0
0
0
0
0
0
0
0
0
0
0
0
0
0
0
0
0
0
0
0
0
0
0
0
0
0
0
0
0
0
0
0
0
0
0
0
0
0
0
0
0
0
0
0
0
0
0
0
0
0
0
0
0
0
0
0
0
0
0
0
0
0
0
0
0
0
0
0
0
0
0
0
0
0
0
0
0
0
0
0
0
0
0
0
0
0
0
0
0
0
0
0
0
0
0
0
0
0
0
0
0
0
0
0
0
0
0
0
0
0
0
0
0
0
0
0
0
0
0
0
0
0
0
0
0
0
0
0
0
0
0
0
0
0
0
0
0
0
0
0
0
0
0
0
0
0
0
0
0
0
0
0
0
0
0
0
0
0
0
0
0
0
0
0
0
0
0
0
0
0
0
0
0
0
0
0
0
0
0
0
0
0
0
0
0
0
0
0
0
0
0
0
0
0
0
0
0
0
0
0
0
0
0
0
0
0
0
0
0
0
0
0
0
0
0
0
0
0
0
0
0
0
0
0
0
0
0
0
0
0
0
0
0
0
0
0
0
0
0
0
0
0
0
0
0
0
0
0
0
0
0
0
0
0
0
0
0
0
0
0
0
0
0
0
0
0
0
0
0
0
0
0
0
0
0
0
0
0
0
0
0
0
0
0
0
0
0
0
0
0
0
0
0
0
0
0
0
0
0
0
0
0
0
0
0
0
0
0
0
0
0
0
0
0
0
0
0
0
0
0
0
0
0
0
0
0
0
0
0
0
0
0
0
0
0
0
0
0
0
0
0
0
0
0
0
0
0
0
0
0
0
0
0
0
0
0
0
0
0
0
0
0
0
0
0
0
0
0
0
0
0
0
0
0
0
0
0
0
0
0
0
0
0
0
0
0
0
0
0
0
0
0
0
0
0
0
0
0
0
0
0
0
0
0
0
0
0
0
0
0
0
0
0
0
0
0
0
0
0
0
0
0
0
0
0
0
0
0
0
0
0
0
0
0
0
0
0
0
0
0
0
0
0
0
0
0
0
0
0
0
0
0
0
0
0
0
0
0
0
0
0
0
0
0
0
0
0
0
0
0
0
0
0
0
0
0
0
0
0
0
0
0
0
0
0
0
0
0
0
0
0
0
0
0
0
0
0
0
0
0
0
0
0
0
0
0
0
0
0
0
0
0
0
0
0
0
0
0
0
0
0
0
0
0
0
0
0
0
0
0
0
0
0
0
0
0
0
0
0
0
0
0
0
0
0
0
0
0
0
0
0
0
0
0
0
0
0
0
0
0
0
0
0
0
0
0
0
0
0
0
0
0
0
0
0
0
0
0
0
0
0
0
0
0
0
0
0
0
0
0
0
0
0
0
0
0
0
0
0
0
0
0
0
0
0
0
0
0
0
0
0
0
0
0
0
0
0
0
0
0
0
0
0
0
0
0
0
0
0
0
0
0
0
0
0
0
0
0
0
0
0
0
0
0
0
0
0
0
0
0
0
0
0
0
0
0
0
0
0
0
0
0
0
0
0
0
0
0
0
0
0
0
0
0
0
0
0
0
0
0
0
0
0
0
0
0
0
0
0
0
0
0
0
0
0
0
0
0
0
0
0
0
0
0
0
0
0
0
0
0
0
0
0
0
0
0
0
0
0
0
0
0
0
0
0
0
0
0
0
0
0
0
0
0
0
0
0
0
0
0
0
0
0
0
0
0
0
0
0
0
0
0
0
0
0
0
0
0
0
0
0
0
0
0
0
0
0
0
0
0
0
0
0
0
0
0
0
0
0
0
0
0
0
0
0
0
0
0
0
0
0
0
0
0
0
0
0
0
0
0
0
0
0
0
0
0
0
0
0
0
0
0
0
0
0
0
0
0
0
0
0
0
0
0
0
0
0
0
0
0
0
0
0
0
0
0
0
0
0
0
0
0
0
0
0
0
0
0
0
0
0
0
0
0
0
0
0
0
0
0
0
0
0
0
0
0
0
0
0
0
0
0
0
0
0
0
0
0
0
0
0
0
0
0
0
0
0
0
0
0
0
0
0
0
0
0
0
0
0
0
0
0
0
0
0
0
0
0
0
0
0
0
0
0
0
0
0
0
0
0
0
0
0
0
0
0
0
0
0
0
0
0
0
0
0
0
0
0
0
0
0
0
0
0
0
0
0
0
0
0
0
0
0
)
;

boundaryField
{
    front
    {
        type            wedge;
    }
    back
    {
        type            wedge;
    }
    wall
    {
        type            calculated;
        value           uniform 0;
    }
    inlet
    {
        type            calculated;
        value           uniform 0;
    }
    outlet
    {
        type            calculated;
        value           uniform 0;
    }
    axis
    {
        type            empty;
    }
}


// ************************************************************************* //
