/*--------------------------------*- C++ -*----------------------------------*\
| =========                 |                                                 |
| \\      /  F ield         | OpenFOAM: The Open Source CFD Toolbox           |
|  \\    /   O peration     | Version:  2112                                  |
|   \\  /    A nd           | Website:  www.openfoam.com                      |
|    \\/     M anipulation  |                                                 |
\*---------------------------------------------------------------------------*/
FoamFile
{
    version     2.0;
    format      ascii;
    arch        "LSB;label=32;scalar=64";
    class       volVectorField;
    location    "0";
    object      C;
}
// * * * * * * * * * * * * * * * * * * * * * * * * * * * * * * * * * * * * * //

dimensions      [0 1 0 0 0 0 0];

internalField   nonuniform List<vector> 
5000
(
(3.33013333e-05 0 1.57628768e-05)
(3.33013333e-05 0 4.73075379e-05)
(3.33013333e-05 -3.64195022e-23 7.88900365e-05)
(3.33013333e-05 -7.68692605e-23 0.000110510418)
(3.33013333e-05 -7.67821e-23 0.000142168728)
(3.33013333e-05 1.12983805e-22 0.000173865012)
(3.33013333e-05 7.66080921e-23 0.000205599315)
(3.33013333e-05 0 0.000237371683)
(3.33013333e-05 0 0.000269182162)
(3.33013333e-05 0 0.000301030797)
(3.33013333e-05 7.62613253e-23 0.000332917635)
(3.33013333e-05 3.60286859e-23 0.00036484272)
(3.33013333e-05 4.01030429e-23 0.0003968061)
(3.33013333e-05 -7.60023395e-23 0.000428807819)
(3.33013333e-05 0 0.000460847924)
(3.33013333e-05 0 0.00049292646)
(3.33013333e-05 0 0.000525043475)
(3.33013333e-05 -1.11428945e-22 0.000557199014)
(3.33013333e-05 -7.55727603e-23 0.000589393123)
(3.33013333e-05 0 0.000621625848)
(3.33013333e-05 0 0.000653897237)
(3.33013333e-05 3.97168837e-23 0.000686207334)
(3.33013333e-05 0 0.000718556188)
(3.33013333e-05 0 0.000750943843)
(3.33013333e-05 0 0.000783370347)
(3.33013333e-05 7.08581379e-23 0.000815835747)
(3.33013333e-05 3.95041443e-23 0.000848340088)
(3.33013333e-05 7.4805977e-23 0.000880883418)
(3.33013333e-05 0 0.000913465784)
(3.33013333e-05 0 0.000946087232)
(3.33013333e-05 0 0.000978747809)
(3.33013333e-05 7.44678315e-23 0.00101144756)
(3.33013333e-05 0 0.00104418654)
(3.33013333e-05 0 0.00107696478)
(3.33013333e-05 -3.50488809e-23 0.00110978235)
(3.33013333e-05 -1.832695e-22 0.00114263928)
(3.33013333e-05 0 0.00117553561)
(3.33013333e-05 0 0.00120847141)
(3.33013333e-05 0 0.00124144672)
(3.33013333e-05 3.48394309e-23 0.00127446158)
(3.33013333e-05 0 0.00130751603)
(3.33013333e-05 0 0.00134061014)
(3.33013333e-05 0 0.00137374395)
(3.33013333e-05 7.34630675e-23 0.00140691749)
(3.33013333e-05 0 0.00144013083)
(3.33013333e-05 1.46594016e-22 0.00147338401)
(3.33013333e-05 0 0.00150667708)
(3.33013333e-05 -7.31313447e-23 0.00154001008)
(3.33013333e-05 0 0.00157338306)
(3.33013333e-05 3.44242792e-23 0.00160679607)
(3.33013333e-05 -7.28835946e-23 0.00164024916)
(3.33013333e-05 0 0.00167374238)
(3.33013333e-05 0 0.00170727577)
(3.33013333e-05 0 0.00174084939)
(3.33013333e-05 0 0.00177446328)
(3.33013333e-05 3.41775658e-23 0.00180811748)
(3.33013333e-05 1.06527379e-22 0.00184181206)
(3.33013333e-05 1.06404688e-22 0.00187554705)
(3.33013333e-05 0 0.0019093225)
(3.33013333e-05 3.4014074e-23 0.00194313847)
(3.33013333e-05 0 0.00197699501)
(3.33013333e-05 0 0.00201089215)
(3.33013333e-05 0 0.00204482995)
(3.33013333e-05 0 0.00207880846)
(3.33013333e-05 0 0.00211282772)
(3.33013333e-05 0 0.0021468878)
(3.33013333e-05 0 0.00218098872)
(3.33013333e-05 -7.14963846e-23 0.00221513055)
(3.33013333e-05 -6.72981405e-23 0.00224931334)
(3.33013333e-05 0 0.00228353712)
(3.33013333e-05 0 0.00231780196)
(3.33013333e-05 3.35282751e-23 0.00235210789)
(3.33013333e-05 3.34881058e-23 0.00238645498)
(3.33013333e-05 0 0.00242084327)
(3.33013333e-05 0 0.0024552728)
(3.33013333e-05 1.37589073e-22 0.00248974363)
(3.33013333e-05 0 0.00252425581)
(3.33013333e-05 0 0.00255880939)
(3.33013333e-05 0 0.00259340441)
(3.33013333e-05 7.05340607e-23 0.00262804093)
(3.33013333e-05 0 0.002662719)
(3.33013333e-05 0 0.00269743866)
(3.33013333e-05 4.11752127e-24 0.00273219997)
(3.33013333e-05 7.43338708e-23 0.00276700297)
(3.33013333e-05 -6.60196381e-23 0.00280184772)
(3.33013333e-05 -3.29702715e-23 0.00283673426)
(3.33013333e-05 -6.58615431e-23 0.00287166266)
(3.33013333e-05 -4.11752127e-24 0.00290663294)
(3.33013333e-05 0 0.00294164518)
(3.33013333e-05 0 0.00297669941)
(3.33013333e-05 0 0.00301179569)
(3.33013333e-05 0 0.00304693406)
(3.33013333e-05 -3.26947622e-23 0.00308211459)
(3.33013333e-05 -1.02084298e-22 0.00311733731)
(3.33013333e-05 -6.93504587e-23 0.00315260228)
(3.33013333e-05 -3.6694914e-23 0.00318790956)
(3.33013333e-05 0 0.00322325918)
(3.33013333e-05 0 0.0032586512)
(3.33013333e-05 0 0.00329408568)
(3.33013333e-05 3.2421555e-23 0.00332956266)
(3.33013333e-05 3.23827121e-23 0.0033650822)
(3.33013333e-05 -1.01149271e-22 0.00340064434)
(3.33013333e-05 -1.01033019e-22 0.00343624913)
(3.33013333e-05 0 0.00347189664)
(3.33013333e-05 0 0.0035075869)
(3.33013333e-05 0 0.00354331997)
(3.33013333e-05 3.21506313e-23 0.00357909591)
(3.33013333e-05 0 0.00361491476)
(3.33013333e-05 0 0.00365077657)
(3.33013333e-05 -6.40704293e-23 0.0036866814)
(3.33013333e-05 -3.1996835e-23 0.00372262929)
(3.33013333e-05 0 0.00375862031)
(3.33013333e-05 0 0.00379465449)
(3.33013333e-05 0 0.0038307319)
(3.33013333e-05 -9.96488422e-23 0.00386685258)
(3.33013333e-05 3.18056243e-23 0.00390301659)
(3.33013333e-05 6.76525591e-23 0.00393922398)
(3.33013333e-05 0 0.0039754748)
(3.33013333e-05 6.75004136e-23 0.0040117691)
(3.33013333e-05 0 0.00404810694)
(3.33013333e-05 0 0.00408448836)
(3.33013333e-05 0 0.00412091342)
(3.33013333e-05 -9.87370609e-23 0.00415738217)
(3.33013333e-05 0 0.00419389467)
(3.33013333e-05 6.70461588e-23 0.00423045096)
(3.33013333e-05 0 0.00426705111)
(3.33013333e-05 1.02401959e-22 0.00430369515)
(3.33013333e-05 9.81716194e-23 0.00434038315)
(3.33013333e-05 3.13138057e-23 0.00437711516)
(3.33013333e-05 9.79463917e-23 0.00441389122)
(3.33013333e-05 0 0.0044507114)
(3.33013333e-05 3.53189149e-23 0.00448757574)
(3.33013333e-05 3.11640135e-23 0.0045244843)
(3.33013333e-05 0 0.00456143713)
(3.33013333e-05 -3.52069064e-23 0.00459843429)
(3.33013333e-05 0 0.00463547583)
(3.33013333e-05 6.61473938e-23 0.00467256179)
(3.33013333e-05 0 0.00470969224)
(3.33013333e-05 -4.11752127e-24 0.00474686723)
(3.33013333e-05 0 0.00478408681)
(3.33013333e-05 0 0.00482135104)
(3.33013333e-05 0 0.00485865996)
(3.33013333e-05 -6.5702836e-23 0.00489601363)
(3.33013333e-05 -3.07557655e-23 0.00493341211)
(3.33013333e-05 0 0.00497085545)
(3.33013333e-05 0 0.0050083437)
(3.33013333e-05 -6.54082357e-23 0.00504587692)
(3.33013333e-05 6.12172861e-23 0.00508345516)
(3.33013333e-05 0 0.00512107847)
(3.33013333e-05 3.05353451e-23 0.00515874691)
(3.33013333e-05 -3.04987613e-23 0.00519646054)
(3.33013333e-05 -3.04622232e-23 0.0052342194)
(3.33013333e-05 0 0.00527202355)
(3.33013333e-05 -6.48960711e-23 0.00530987305)
(3.33013333e-05 3.0352868e-23 0.00534776795)
(3.33013333e-05 6.0633007e-23 0.00538570831)
(3.33013333e-05 0 0.00542369417)
(3.33013333e-05 -9.4849236e-23 0.0054617256)
(3.33013333e-05 0 0.00549980264)
(3.33013333e-05 -6.44604829e-23 0.00553792536)
(3.33013333e-05 3.01353332e-23 0.00557609381)
(3.33013333e-05 -4.11752127e-24 0.00561430804)
(3.33013333e-05 -9.43070309e-23 0.00565256811)
(3.33013333e-05 1.58370802e-22 0.00569087407)
(3.33013333e-05 0 0.00572922597)
(3.33013333e-05 0 0.00576762388)
(3.33013333e-05 -6.39562388e-23 0.00580606785)
(3.33013333e-05 2.98835144e-23 0.00584455793)
(3.33013333e-05 -5.96954234e-23 0.00588309418)
(3.33013333e-05 0 0.00592167665)
(3.33013333e-05 2.97762359e-23 0.00596030541)
(3.33013333e-05 0 0.0059989805)
(3.33013333e-05 -2.97049323e-23 0.00603770197)
(3.33013333e-05 9.31255535e-23 0.0060764699)
(3.33013333e-05 0 0.00611528432)
(3.33013333e-05 -6.33141128e-23 0.00615414531)
(3.33013333e-05 -6.32431911e-23 0.0061930529)
(3.33013333e-05 -9.26997731e-23 0.00623200717)
(3.33013333e-05 0 0.00627100816)
(3.33013333e-05 -2.94567085e-23 0.00631005593)
(3.33013333e-05 -9.23817759e-23 0.00634915055)
(3.33013333e-05 5.87723391e-23 0.00638829205)
(3.33013333e-05 0 0.0064274805)
(3.33013333e-05 2.93157996e-23 0.00646671596)
(3.33013333e-05 0 0.00650599849)
(3.33013333e-05 0 0.00654532813)
(3.33013333e-05 0 0.00658470495)
(3.33013333e-05 0 0.00662412899)
(3.33013333e-05 0 0.00666360033)
(3.33013333e-05 -6.2328917e-23 0.00670311902)
(3.33013333e-05 0 0.0067426851)
(3.33013333e-05 -1.20261519e-22 0.00678229865)
(3.33013333e-05 2.90012125e-23 0.00682195971)
(3.33013333e-05 6.61679783e-23 0.00686166834)
(3.33013333e-05 -6.19810498e-23 0.00690142461)
(3.33013333e-05 0 0.00694122856)
(3.33013333e-05 0 0.00698108026)
(3.33013333e-05 6.17733271e-23 0.00702097976)
(3.33013333e-05 -5.75867322e-23 0.00706092711)
(3.33013333e-05 6.16352617e-23 0.00710092239)
(3.33013333e-05 -2.87244146e-23 0.00714096563)
(3.33013333e-05 -6.14975256e-23 0.00718105691)
(3.33013333e-05 0 0.00722119628)
(3.33013333e-05 3.273882e-23 0.0072613838)
(3.33013333e-05 0 0.00730161952)
(3.33013333e-05 0 0.0073419035)
(3.33013333e-05 1.50827804e-22 0.0073822358)
(3.33013333e-05 2.84843851e-23 0.00742261648)
(3.33013333e-05 0 0.0074630456)
(3.33013333e-05 6.09498694e-23 0.00750352321)
(3.33013333e-05 0 0.00754404938)
(3.33013333e-05 0 0.00758462415)
(3.33013333e-05 8.90600151e-23 0.00762524759)
(3.33013333e-05 0 0.00766591977)
(3.33013333e-05 5.64927241e-23 0.00770664072)
(3.33013333e-05 -4.11752127e-24 0.00774741052)
(3.33013333e-05 -5.63574411e-23 0.00778822923)
(3.33013333e-05 5.62899219e-23 0.0078290969)
(3.33013333e-05 -8.84512482e-23 0.00787001358)
(3.33013333e-05 0 0.00791097935)
(3.33013333e-05 0 0.00795199425)
(3.33013333e-05 0 0.00799305835)
(3.33013333e-05 -2.79767685e-23 0.00803417171)
(3.33013333e-05 5.58865012e-23 0.00807533438)
(3.33013333e-05 0 0.00811654643)
(3.33013333e-05 0 0.00815780791)
(3.33013333e-05 0 0.00819911888)
(3.33013333e-05 0 0.00824047941)
(3.33013333e-05 2.77762633e-23 0.00828188954)
(3.33013333e-05 5.54859728e-23 0.00832334935)
(3.33013333e-05 2.77097491e-23 0.00836485889)
(3.33013333e-05 0 0.00840641822)
(3.33013333e-05 0 0.0084480274)
(3.33013333e-05 2.76102743e-23 0.00848968648)
(3.33013333e-05 0 0.00853139554)
(3.33013333e-05 -3.16616788e-23 0.00857315463)
(3.33013333e-05 3.16286792e-23 0.00861496381)
(3.33013333e-05 0 0.00865682314)
(3.33013333e-05 0 0.00869873267)
(3.33013333e-05 0 0.00874069248)
(3.33013333e-05 0 0.00878270262)
(3.33013333e-05 0 0.00882476315)
(3.33013333e-05 0 0.00886687413)
(3.33013333e-05 -5.86800532e-23 0.00890903562)
(3.33013333e-05 -3.13661032e-23 0.00895124768)
(3.33013333e-05 0 0.00899351038)
(3.33013333e-05 5.84841816e-23 0.00903582377)
(3.33013333e-05 0 0.00907818791)
(3.33013333e-05 0 0.00912060287)
(3.33013333e-05 1.12460507e-22 0.00916306871)
(3.33013333e-05 -5.82241135e-23 0.00920558548)
(3.33013333e-05 0 0.00924815326)
(3.33013333e-05 5.80945463e-23 0.00929077209)
(3.33013333e-05 -5.80298783e-23 0.00933344204)
(3.33013333e-05 -2.69238835e-23 0.00937616318)
(3.33013333e-05 0 0.00941893556)
(3.33013333e-05 0 0.00946175924)
(3.33013333e-05 0 0.00950463429)
(3.33013333e-05 0 0.00954756077)
(3.33013333e-05 0 0.00959053874)
(3.33013333e-05 0 0.00963356826)
(3.33013333e-05 8.42142209e-23 0.0096766494)
(3.33013333e-05 0 0.00971978221)
(3.33013333e-05 0 0.00976296675)
(3.33013333e-05 2.66030542e-23 0.0098062031)
(3.33013333e-05 -1.14519774e-22 0.00984949131)
(3.33013333e-05 0 0.00989283144)
(3.33013333e-05 5.3015106e-23 0.00993622356)
(3.33013333e-05 0 0.00997966773)
(3.33013333e-05 0 0.010023164)
(3.33013333e-05 5.69423148e-23 0.0100667125)
(3.33013333e-05 0 0.0101103131)
(3.33013333e-05 2.6349146e-23 0.0101539661)
(3.33013333e-05 5.263516e-23 0.0101976715)
(3.33013333e-05 2.62860475e-23 0.0102414292)
(3.33013333e-05 0 0.0102852395)
(3.33013333e-05 8.27868243e-23 0.0103291023)
(3.33013333e-05 0 0.0103730177)
(3.33013333e-05 0 0.0104169858)
(3.33013333e-05 1.65008837e-22 0.0104610067)
(3.33013333e-05 4.11752127e-24 0.0105050803)
(3.33013333e-05 -5.21327812e-23 0.0105492068)
(3.33013333e-05 2.60351682e-23 0.0105933862)
(3.33013333e-05 0 0.0106376187)
(3.33013333e-05 0 0.0106819042)
(3.33013333e-05 5.60009263e-23 0.0107262428)
(3.33013333e-05 -5.59387621e-23 0.0107706345)
(3.33013333e-05 8.17562721e-23 0.0108150796)
(3.33013333e-05 2.58485746e-23 0.0108595779)
(3.33013333e-05 0 0.0109041297)
(3.33013333e-05 0 0.0109487348)
(3.33013333e-05 -5.56290786e-23 0.0109933935)
(3.33013333e-05 2.57249275e-23 0.0110381057)
(3.33013333e-05 0 0.0110828716)
(3.33013333e-05 0 0.0111276911)
(3.33013333e-05 0 0.0111725645)
(3.33013333e-05 0 0.0112174916)
(3.33013333e-05 8.08311035e-23 0.0112624726)
(3.33013333e-05 0 0.0113075076)
(3.33013333e-05 0 0.0113525966)
(3.33013333e-05 0 0.0113977397)
(3.33013333e-05 0 0.011442937)
(3.33013333e-05 -5.08367666e-23 0.0114881884)
(3.33013333e-05 -2.53879314e-23 0.0115334942)
(3.33013333e-05 0 0.0115788543)
(3.33013333e-05 0 0.0116242687)
(3.33013333e-05 -2.52967895e-23 0.0116697377)
(3.33013333e-05 -2.11489626e-23 0.0117152612)
(3.33013333e-05 -5.04724352e-23 0.0117608393)
(3.33013333e-05 0 0.0118064721)
(3.33013333e-05 0 0.0118521596)
(3.33013333e-05 0 0.0118979019)
(3.33013333e-05 0 0.0119436991)
(3.33013333e-05 0 0.0119895512)
(3.33013333e-05 5.42282243e-23 0.0120354583)
(3.33013333e-05 0 0.0120814205)
(3.33013333e-05 0 0.0121274378)
(3.33013333e-05 4.99308159e-23 0.0121735103)
(3.33013333e-05 0 0.0122196381)
(3.33013333e-05 -4.98112368e-23 0.0122658212)
(3.33013333e-05 0 0.0123120597)
(3.33013333e-05 2.48459805e-23 0.0123583537)
(3.33013333e-05 2.4816215e-23 0.0124047032)
(3.33013333e-05 -1.81740426e-22 0.0124511082)
(3.33013333e-05 -5.36310924e-23 0.012497569)
(3.33013333e-05 5.35717753e-23 0.0125440855)
(3.33013333e-05 0 0.0125906577)
(3.33013333e-05 0 0.0126372859)
(3.33013333e-05 0 0.0126839699)
(3.33013333e-05 0 0.01273071)
(3.33013333e-05 -7.78555965e-23 0.0127775061)
(3.33013333e-05 0 0.0128243584)
(3.33013333e-05 0 0.0128712669)
(3.33013333e-05 0 0.0129182316)
(3.33013333e-05 0 0.0129652526)
(3.33013333e-05 0 0.0130123301)
(3.33013333e-05 0 0.013059464)
(3.33013333e-05 0 0.0131066545)
(3.33013333e-05 0 0.0131539016)
(3.33013333e-05 7.29468085e-23 0.0132012053)
(3.33013333e-05 -4.85729372e-23 0.0132485658)
(3.33013333e-05 -2.42573683e-23 0.0132959831)
(3.33013333e-05 -7.68024575e-23 0.0133434573)
(3.33013333e-05 -5.25160907e-23 0.0133909884)
(3.33013333e-05 0 0.0134385765)
(3.33013333e-05 1.97248217e-22 0.0134862217)
(3.33013333e-05 0 0.0135339241)
(3.33013333e-05 0 0.0135816836)
(3.33013333e-05 -1.28508404e-22 0.0136295005)
(3.33013333e-05 7.6195067e-23 0.0136773747)
(3.33013333e-05 5.2111659e-23 0.0137253064)
(3.33013333e-05 7.60224756e-23 0.0137732955)
(3.33013333e-05 2.39396013e-23 0.0138213422)
(3.33013333e-05 0 0.0138694465)
(3.33013333e-05 -4.7764549e-23 0.0139176086)
(3.33013333e-05 4.7707329e-23 0.0139658284)
(3.33013333e-05 2.38250835e-23 0.014014106)
(3.33013333e-05 0 0.0140624416)
(3.33013333e-05 -5.16535877e-23 0.0141108351)
(3.33013333e-05 2.37395541e-23 0.0141592867)
(3.33013333e-05 2.37111139e-23 0.0142077964)
(3.33013333e-05 0 0.0142563643)
(3.33013333e-05 9.87348621e-23 0.0143049904)
(3.33013333e-05 5.13695052e-23 0.0143536749)
(3.33013333e-05 -5.13128963e-23 0.0144024177)
(3.33013333e-05 -2.35694218e-23 0.014451219)
(3.33013333e-05 -4.70823609e-23 0.0145000789)
(3.33013333e-05 0 0.0145489974)
(3.33013333e-05 -1.96113516e-22 0.0145979745)
(3.33013333e-05 0 0.0146470104)
(3.33013333e-05 -5.09746592e-23 0.0146961051)
(3.33013333e-05 0 0.0147452587)
(3.33013333e-05 2.33724646e-23 0.0147944713)
(3.33013333e-05 -7.4150904e-23 0.0148437429)
(3.33013333e-05 0 0.0148930736)
(3.33013333e-05 0 0.0149424635)
(3.33013333e-05 0 0.0149919126)
(3.33013333e-05 0 0.015041421)
(3.33013333e-05 0 0.0150909888)
(3.33013333e-05 0 0.0151406161)
(3.33013333e-05 0 0.0151903028)
(3.33013333e-05 0 0.0152400492)
(3.33013333e-05 0 0.0152898553)
(3.33013333e-05 0 0.0153397211)
(3.33013333e-05 2.30386566e-23 0.0153896467)
(3.33013333e-05 0 0.0154396322)
(3.33013333e-05 0 0.0154896777)
(3.33013333e-05 9.59413063e-23 0.0155397831)
(3.33013333e-05 0 0.0155899487)
(3.33013333e-05 -4.99194665e-23 0.0156401745)
(3.33013333e-05 0 0.0156904605)
(3.33013333e-05 0 0.0157408068)
(3.33013333e-05 0 0.0157912135)
(3.33013333e-05 1.44983582e-22 0.0158416807)
(3.33013333e-05 4.11752127e-24 0.0158922084)
(3.33013333e-05 7.2328064e-23 0.0159427967)
(3.33013333e-05 0 0.0159934457)
(3.33013333e-05 0 0.0160441555)
(3.33013333e-05 -4.53104496e-23 0.0160949261)
(3.33013333e-05 0 0.0161457575)
(3.33013333e-05 0 0.01619665)
(3.33013333e-05 0 0.0162476035)
(3.33013333e-05 0 0.0162986181)
(3.33013333e-05 0 0.0163496939)
(3.33013333e-05 1.83753376e-23 0.016400831)
(3.33013333e-05 0 0.0164520294)
(3.33013333e-05 0 0.0165032892)
(3.33013333e-05 -9.37659835e-23 0.0165546105)
(3.33013333e-05 0 0.0166059934)
(3.33013333e-05 7.11928544e-23 0.0166574379)
(3.33013333e-05 -4.87808317e-23 0.0167089441)
(3.33013333e-05 0 0.0167605121)
(3.33013333e-05 -1.41904114e-22 0.0168121419)
(3.33013333e-05 0 0.0168638337)
(3.33013333e-05 -6.66744857e-23 0.0169155874)
(3.33013333e-05 0 0.0169674033)
(3.33013333e-05 0 0.0170192813)
(3.33013333e-05 0 0.0170712215)
(3.33013333e-05 0 0.0171232241)
(3.33013333e-05 0 0.017175289)
(3.33013333e-05 -4.41310956e-23 0.0172274163)
(3.33013333e-05 0 0.0172796062)
(3.33013333e-05 -2.61302304e-23 0.0173318587)
(3.33013333e-05 0 0.0173841739)
(3.33013333e-05 -2.19599972e-23 0.0174365518)
(3.33013333e-05 0 0.0174889925)
(3.33013333e-05 0 0.0175414962)
(3.33013333e-05 2.18811639e-23 0.0175940628)
(3.33013333e-05 4.78274202e-23 0.0176466925)
(3.33013333e-05 0 0.0176993853)
(3.33013333e-05 0 0.0177521413)
(3.33013333e-05 4.76705057e-23 0.0178049606)
(3.33013333e-05 0 0.0178578432)
(3.33013333e-05 0 0.0179107893)
(3.33013333e-05 -4.75141575e-23 0.0179637989)
(3.33013333e-05 4.11752127e-24 0.0180168721)
(3.33013333e-05 0 0.0180700089)
(3.33013333e-05 0 0.0181232095)
(3.33013333e-05 0 0.0181764739)
(3.33013333e-05 0 0.0182298022)
(3.33013333e-05 4.30856138e-23 0.0182831944)
(3.33013333e-05 0 0.0183366507)
(3.33013333e-05 -9.00823982e-23 0.0183901711)
(3.33013333e-05 0 0.0184437557)
(3.33013333e-05 -1.79753108e-22 0.0184974046)
(3.33013333e-05 -6.83597258e-23 0.0185511178)
(3.33013333e-05 -6.82827687e-23 0.0186048955)
(3.33013333e-05 -4.11752127e-24 0.0186587376)
(3.33013333e-05 0 0.0187126444)
(3.33013333e-05 4.11752127e-24 0.0187666158)
(3.33013333e-05 0 0.0188206519)
(3.33013333e-05 -8.91599176e-23 0.0188747529)
(3.33013333e-05 4.65877787e-23 0.0189289187)
(3.33013333e-05 -4.65368974e-23 0.0189831496)
(3.33013333e-05 0 0.0190374454)
(3.33013333e-05 0 0.0190918064)
(3.33013333e-05 0 0.0191462326)
(3.33013333e-05 -4.63339737e-23 0.0192007241)
(3.33013333e-05 -4.21658835e-23 0.019255281)
(3.33013333e-05 8.83482537e-23 0.0193099033)
(3.33013333e-05 1.34429745e-22 0.0193645911)
(3.33013333e-05 -4.20145099e-23 0.0194193445)
(3.33013333e-05 -2.09820893e-23 0.0194741636)
(3.33013333e-05 0 0.0195290484)
(3.33013333e-05 4.59812076e-23 0.0195839991)
(3.33013333e-05 0 0.0196390157)
(3.33013333e-05 0 0.0196940983)
(3.33013333e-05 8.75443163e-23 0.0197492469)
(3.33013333e-05 8.74443664e-23 0.0198044617)
(3.33013333e-05 0 0.0198597428)
(3.33013333e-05 8.72448383e-23 0.0199150901)
(3.33013333e-05 0 0.0199705038)
(3.33013333e-05 0 0.020025984)
(3.33013333e-05 -4.5531968e-23 0.0200815308)
(3.33013333e-05 -4.5482357e-23 0.0201371441)
(3.33013333e-05 0 0.0201928242)
(3.33013333e-05 0 0.0202485711)
(3.33013333e-05 -4.53338583e-23 0.0203043848)
(3.33013333e-05 0 0.0203602655)
(3.33013333e-05 4.52351563e-23 0.0204162132)
(3.33013333e-05 2.05341866e-23 0.0204722281)
(3.33013333e-05 0 0.0205283101)
(3.33013333e-05 2.04850138e-23 0.0205844594)
(3.33013333e-05 0 0.020640676)
(3.33013333e-05 0 0.02069696)
(3.33013333e-05 0 0.0207533116)
(3.33013333e-05 -4.48915636e-23 0.0208097308)
(3.33013333e-05 0 0.0208662176)
(3.33013333e-05 8.54703407e-23 0.0209227722)
(3.33013333e-05 2.03138341e-23 0.0209793947)
(3.33013333e-05 0 0.021036085)
(3.33013333e-05 0 0.0210928434)
(3.33013333e-05 0 0.0211496698)
(3.33013333e-05 0 0.0212065644)
(3.33013333e-05 0 0.0212635273)
(3.33013333e-05 -4.44540162e-23 0.0213205584)
(3.33013333e-05 0 0.021377658)
(3.33013333e-05 -4.43574312e-23 0.0214348261)
(3.33013333e-05 0 0.0214920627)
(3.33013333e-05 0 0.021549368)
(3.33013333e-05 0 0.021606742)
(3.33013333e-05 -4.41649384e-23 0.0216641849)
(3.33013333e-05 1.68232777e-22 0.0217216966)
(3.33013333e-05 3.99515164e-23 0.0217792774)
(3.33013333e-05 -4.40211729e-23 0.0218369272)
(3.33013333e-05 -4.39733674e-23 0.0218946461)
(3.33013333e-05 0 0.0219524343)
(3.33013333e-05 0 0.0220102918)
(3.33013333e-05 0 0.0220682187)
(3.33013333e-05 -8.34479018e-23 0.0221262151)
(3.33013333e-05 -3.96176677e-23 0.0221842811)
(3.33013333e-05 -1.26945656e-22 0.0222424167)
(3.33013333e-05 0 0.022300622)
(3.33013333e-05 0 0.0223588972)
(3.33013333e-05 -1.6183015e-22 0.0224172422)
(3.33013333e-05 -8.28793431e-23 0.0224756573)
(3.33013333e-05 0 0.0225341424)
(3.33013333e-05 0 0.0225926976)
(3.33013333e-05 -1.65193234e-22 0.0226513231)
(3.33013333e-05 -8.25025855e-23 0.022710019)
(3.33013333e-05 0 0.0227687852)
(3.33013333e-05 -1.25531097e-22 0.0228276219)
(3.33013333e-05 0 0.0228865292)
(3.33013333e-05 -4.3122576e-23 0.0229455071)
(3.33013333e-05 0 0.0230045558)
(3.33013333e-05 -4.30291629e-23 0.0230636753)
(3.33013333e-05 0 0.0231228657)
(3.33013333e-05 0 0.0231821272)
(3.33013333e-05 4.11752127e-24 0.0232414597)
(3.33013333e-05 0 0.0233008634)
(3.33013333e-05 -1.20154849e-22 0.0233603383)
(3.33013333e-05 0 0.0234198846)
(3.33013333e-05 0 0.0234795023)
(3.33013333e-05 0 0.0235391915)
(3.33013333e-05 -4.26116135e-23 0.0235989523)
(3.33013333e-05 -4.25654862e-23 0.0236587848)
(3.33013333e-05 4.25194309e-23 0.0237186891)
(3.33013333e-05 7.67118011e-23 0.0237786652)
(3.33013333e-05 0 0.0238387132)
(3.33013333e-05 8.06456281e-23 0.0238988333)
(3.33013333e-05 -3.82182026e-23 0.0239590255)
(3.33013333e-05 3.81724235e-23 0.0240192899)
(3.33013333e-05 3.81266845e-23 0.0240796266)
(3.33013333e-05 0 0.0241400356)
(3.33013333e-05 0 0.0242005171)
(3.33013333e-05 0 0.0242610712)
(3.33013333e-05 0 0.0243216979)
(3.33013333e-05 3.78988439e-23 0.0243823973)
(3.33013333e-05 1.59648804e-22 0.0244431695)
(3.33013333e-05 1.1754179e-22 0.0245040147)
(3.33013333e-05 0 0.0245649328)
(3.33013333e-05 0 0.0246259239)
(3.33013333e-05 -4.17898812e-23 0.0246869883)
(3.33013333e-05 0 0.0247481258)
(3.33013333e-05 0 0.0248093368)
(3.33013333e-05 0 0.0248706211)
(3.33013333e-05 -1.16593968e-22 0.0249319789)
(3.33013333e-05 0 0.0249934104)
(3.33013333e-05 1.16324629e-22 0.0250549155)
(3.33013333e-05 0 0.0251164944)
(3.33013333e-05 0 0.0251781472)
(3.33013333e-05 0 0.0252398739)
(3.33013333e-05 0 0.0253016747)
(3.33013333e-05 -3.71788623e-23 0.0253635496)
(3.33013333e-05 0 0.0254254987)
(3.33013333e-05 0 0.0254875221)
(3.33013333e-05 0 0.0255496199)
(3.33013333e-05 1.15120554e-22 0.0256117922)
(3.33013333e-05 -3.69566756e-23 0.0256740391)
(3.33013333e-05 -1.92797068e-22 0.0257363606)
(3.33013333e-05 7.7853884e-23 0.0257987569)
(3.33013333e-05 0 0.025861228)
(3.33013333e-05 0 0.0259237741)
(3.33013333e-05 0 0.0259863952)
(3.33013333e-05 0 0.0260490914)
(3.33013333e-05 -7.74132434e-23 0.0261118628)
(3.33013333e-05 0 0.0261747095)
(3.33013333e-05 0 0.0262376316)
(3.33013333e-05 0 0.0263006292)
(3.33013333e-05 0 0.0263637023)
(3.33013333e-05 0 0.0264268511)
(3.33013333e-05 1.49658372e-22 0.0264900756)
(3.33013333e-05 0 0.026553376)
(3.33013333e-05 0 0.0266167523)
(3.33013333e-05 3.62545899e-23 0.0266802046)
(3.33013333e-05 0 0.026743733)
(3.33013333e-05 -3.61677741e-23 0.0268073376)
(3.33013333e-05 0 0.0268710186)
(3.33013333e-05 0 0.0269347759)
(3.33013333e-05 -7.61933856e-23 0.0269986097)
(3.33013333e-05 0 0.02706252)
(3.33013333e-05 7.60207873e-23 0.027126507)
(3.33013333e-05 -3.59085654e-23 0.0271905708)
(3.33013333e-05 0 0.0272547114)
(3.33013333e-05 -3.58225718e-23 0.0273189289)
(3.33013333e-05 -7.56768462e-23 0.0273832235)
(3.33013333e-05 3.98543106e-23 0.0274475952)
(3.33013333e-05 0 0.0275120441)
(3.33013333e-05 7.5419946e-23 0.0275765703)
(3.33013333e-05 7.53345274e-23 0.0276411739)
(3.33013333e-05 0 0.027705855)
(3.33013333e-05 7.51639846e-23 0.0277706137)
(3.33013333e-05 7.50788606e-23 0.02783545)
(3.33013333e-05 -3.95556871e-23 0.0279003642)
(3.33013333e-05 -7.490894e-23 0.0279653562)
(3.33013333e-05 3.53533056e-23 0.0280304261)
(3.33013333e-05 3.9428465e-23 0.0280955741)
(3.33013333e-05 7.4654812e-23 0.0281608003)
(3.33013333e-05 -3.5226389e-23 0.0282261047)
(3.33013333e-05 3.93017066e-23 0.0282914874)
(3.33013333e-05 0 0.0283569485)
(3.33013333e-05 -1.09417314e-22 0.0284224882)
(3.33013333e-05 0 0.0284881065)
(3.33013333e-05 0 0.0285538035)
(3.33013333e-05 -1.13156819e-22 0.0286195792)
(3.33013333e-05 0 0.0286854339)
(3.33013333e-05 0 0.0287513676)
(3.33013333e-05 -7.38142785e-23 0.0288173804)
(3.33013333e-05 0 0.0288834723)
(3.33013333e-05 0 0.0289496436)
(3.33013333e-05 0 0.0290158942)
(3.33013333e-05 3.46816762e-23 0.0290822242)
(3.33013333e-05 1.08037883e-22 0.0291486339)
(3.33013333e-05 0 0.0292151231)
(3.33013333e-05 0 0.0292816922)
(3.33013333e-05 0 0.0293483411)
(3.33013333e-05 -1.07540793e-22 0.0294150699)
(3.33013333e-05 0 0.0294818788)
(3.33013333e-05 0 0.0295487678)
(3.33013333e-05 -3.43506626e-23 0.029615737)
(3.33013333e-05 0 0.0296827866)
(3.33013333e-05 0 0.0297499166)
(3.33013333e-05 0 0.0298171271)
(3.33013333e-05 3.83038624e-23 0.0298844182)
(3.33013333e-05 0 0.0299517901)
(3.33013333e-05 0 0.0300192427)
(3.33013333e-05 -3.40636177e-23 0.0300867763)
(3.33013333e-05 0 0.0301543909)
(3.33013333e-05 -3.39820445e-23 0.0302220866)
(3.33013333e-05 3.39413367e-23 0.0302898635)
(3.33013333e-05 1.39720187e-22 0.0303577216)
(3.33013333e-05 0 0.0304256612)
(3.33013333e-05 0 0.0304936823)
(3.33013333e-05 -3.78964918e-23 0.0305617849)
(3.33013333e-05 3.78560265e-23 0.0306299693)
(3.33013333e-05 0 0.0306982354)
(3.33013333e-05 0 0.0307665834)
(3.33013333e-05 0 0.0308350134)
(3.33013333e-05 0 0.0309035255)
(3.33013333e-05 0 0.0309721198)
(3.33013333e-05 -3.76142274e-23 0.0310407963)
(3.33013333e-05 0 0.0311095552)
(3.33013333e-05 7.0950498e-23 0.0311783966)
(3.33013333e-05 3.33764556e-23 0.0312473206)
(3.33013333e-05 -3.33364704e-23 0.0313163272)
(3.33013333e-05 7.07105769e-23 0.0313854167)
(3.33013333e-05 -4.11752127e-24 0.0314545889)
(3.33013333e-05 0 0.0315238442)
(3.33013333e-05 0 0.0315931825)
(3.33013333e-05 3.31372523e-23 0.031662604)
(3.33013333e-05 0 0.0317321088)
(3.33013333e-05 3.30578998e-23 0.0318016969)
(3.33013333e-05 0 0.0318713685)
(3.33013333e-05 0 0.0319411237)
(3.33013333e-05 -3.70567488e-23 0.0320109626)
(3.33013333e-05 -1.02816817e-22 0.0320808852)
(3.33013333e-05 0 0.0321508917)
(3.33013333e-05 3.28209783e-23 0.0322209822)
(3.33013333e-05 -6.96808383e-23 0.0322911567)
(3.33013333e-05 0 0.0323614154)
(3.33013333e-05 0 0.0324317584)
(3.33013333e-05 0 0.0325021858)
(3.33013333e-05 0 0.0325726976)
(3.33013333e-05 0 0.032643294)
(3.33013333e-05 0 0.0327139751)
(3.33013333e-05 0 0.032784741)
(3.33013333e-05 6.49375576e-23 0.0328555918)
(3.33013333e-05 0 0.0329265275)
(3.33013333e-05 0 0.0329975483)
(3.33013333e-05 0 0.0330686544)
(3.33013333e-05 0 0.0331398457)
(3.33013333e-05 6.86670165e-23 0.0332111224)
(3.33013333e-05 0 0.0332824846)
(3.33013333e-05 6.85124386e-23 0.0333539324)
(3.33013333e-05 3.21588854e-23 0.0334254659)
(3.33013333e-05 0 0.0334970852)
(3.33013333e-05 3.2081877e-23 0.0335687904)
(3.33013333e-05 0 0.0336405816)
(3.33013333e-05 1.0013267e-22 0.033712459)
(3.33013333e-05 0 0.0337844225)
(3.33013333e-05 -9.99027441e-23 0.0338564724)
(3.33013333e-05 -1.35795674e-22 0.0339286087)
(3.33013333e-05 -3.18519511e-23 0.0340008315)
(3.33013333e-05 0 0.034073141)
(3.33013333e-05 3.17756714e-23 0.0341455372)
(3.33013333e-05 -9.93303424e-23 0.0342180202)
(3.33013333e-05 0 0.0342905902)
(3.33013333e-05 0 0.0343632472)
(3.33013333e-05 -3.57411938e-23 0.0344359913)
(3.33013333e-05 -3.15857849e-23 0.0345088228)
(3.33013333e-05 3.5665466e-23 0.0345817416)
(3.33013333e-05 1.30158129e-22 0.0346547478)
(3.33013333e-05 0 0.0347278416)
(3.33013333e-05 0 0.0348010231)
(3.33013333e-05 3.13970324e-23 0.0348742924)
(3.33013333e-05 -6.68363542e-23 0.0349476496)
(3.33013333e-05 0 0.0350210947)
(3.33013333e-05 -6.66861577e-23 0.035094628)
(3.33013333e-05 -9.78580418e-23 0.0351682494)
(3.33013333e-05 3.12094053e-23 0.0352419592)
(3.33013333e-05 0 0.0353157573)
(3.33013333e-05 0 0.035389644)
(3.33013333e-05 -3.1097368e-23 0.0354636194)
(3.33013333e-05 6.21202199e-23 0.0355376834)
(3.33013333e-05 0 0.0356118363)
(3.33013333e-05 3.09857318e-23 0.0356860782)
(3.33013333e-05 0 0.035760409)
(3.33013333e-05 0 0.0358348291)
(3.33013333e-05 0 0.0359093384)
(3.33013333e-05 3.0837506e-23 0.0359839371)
(3.33013333e-05 0 0.0360586253)
(3.33013333e-05 0 0.036133403)
(3.33013333e-05 0 0.0362082705)
(3.33013333e-05 -3.48075132e-23 0.0362832277)
(3.33013333e-05 0 0.0363582749)
(3.33013333e-05 3.06165022e-23 0.0364334121)
(3.33013333e-05 -3.46973434e-23 0.0365086394)
(3.33013333e-05 -3.05431853e-23 0.0365839569)
(3.33013333e-05 0 0.0366593648)
(3.33013333e-05 0 0.0367348632)
(3.33013333e-05 -3.45510593e-23 0.0368104521)
(3.33013333e-05 0 0.0368861316)
(3.33013333e-05 3.03606612e-23 0.036961902)
(3.33013333e-05 0 0.0370377632)
(3.33013333e-05 6.46934358e-23 0.0371137154)
(3.33013333e-05 0 0.0371897588)
(3.33013333e-05 0 0.0372658933)
(3.33013333e-05 0 0.0373421192)
(3.33013333e-05 6.44036572e-23 0.0374184365)
(3.33013333e-05 0 0.0374948453)
(3.33013333e-05 -6.42592943e-23 0.0375713458)
(3.33013333e-05 6.41872465e-23 0.0376479381)
(3.33013333e-05 -3.41163992e-23 0.0377246222)
(3.33013333e-05 0 0.0378013983)
(3.33013333e-05 0 0.0378782665)
(3.33013333e-05 0 0.0379552269)
(3.33013333e-05 0 0.0380322796)
(3.33013333e-05 -6.3756735e-23 0.0381094248)
(3.33013333e-05 6.36852843e-23 0.0381866624)
(3.33013333e-05 0 0.0382639928)