/*--------------------------------*- C++ -*----------------------------------*\
| =========                 |                                                 |
| \\      /  F ield         | OpenFOAM: The Open Source CFD Toolbox           |
|  \\    /   O peration     | Version:  2112                                  |
|   \\  /    A nd           | Website:  www.openfoam.com                      |
|    \\/     M anipulation  |                                                 |
\*---------------------------------------------------------------------------*/
FoamFile
{
    version     2.0;
    format      ascii;
    arch        "LSB;label=32;scalar=64";
    class       volScalarField;
    location    "0";
    object      Cy;
}
// * * * * * * * * * * * * * * * * * * * * * * * * * * * * * * * * * * * * * //

dimensions      [0 1 0 0 0 0 0];

internalField   nonuniform List<scalar> 
4000
(
-1.13645479e-22
0
0
0
1.53399524e-22
0
0
0
-1.12340197e-22
0
0
-7.18248101e-23
0
0
0
0
-3.97618376e-23
7.52993998e-23
0
0
0
-7.48739792e-23
7.06505004e-23
0
-1.13893635e-22
0
3.51141277e-23
-3.91790658e-23
7.41356017e-23
0
1.08830323e-22
-1.47643033e-22
0
0
-7.35088414e-23
-3.46437042e-23
3.45918258e-23
7.31975707e-23
0
0
0
0
-6.8564361e-23
0
-7.24766864e-23
0
-3.81948134e-23
0
3.39753073e-23
0
-1.05738405e-22
-7.1763326e-23
6.75445063e-23
0
-3.77887031e-23
0
3.35704121e-23
-1.04677944e-22
0
3.75373447e-23
7.08570759e-23
0
0
0
-1.36798889e-22
0
0
0
0
0
0
3.6941715e-23
3.6892561e-23
3.68434805e-23
0
-1.38747118e-22
3.25791587e-23
-3.25303713e-23
0
-4.11752127e-24
0
0
3.22875297e-23
0
0
-3.62602169e-23
0
6.82105237e-23
0
-9.99693043e-23
0
-9.96824437e-23
0
0
0
3.1664592e-23
-6.73518699e-23
-3.56873496e-23
6.71626256e-23
-9.85435645e-23
-6.69739477e-23
0
3.54516787e-23
0
0
3.53111204e-23
3.11468876e-23
0
9.72785372e-23
0
0
0
0
-3.49393759e-23
-6.15513987e-23
0
6.13671904e-23
0
0
-3.05459561e-23
0
1.25935683e-22
-6.49353909e-23
6.4844316e-23
0
-3.02725274e-23
3.02271948e-23
0
-3.01367322e-23
0
-3.00465412e-23
0
0
0
0
0
0
0
0
-6.34055356e-23
3.37171378e-23
0
2.95110315e-23
0
2.94227134e-23
9.63710002e-23
-3.34521797e-23
0
0
2.92030703e-23
-6.24361998e-23
0
-6.22616655e-23
6.21745963e-23
0
0
-2.88983221e-23
9.48001832e-23
2.88118376e-23
0
5.7451221e-23
0
9.00364474e-23
0
2.85539316e-23
3.2628693e-23
5.69369527e-23
0
0
0
0
8.88853943e-23
0
0
0
-6.02916912e-23
0
0
-3.20786141e-23
-1.15794406e-22
2.78774126e-23
-5.56713329e-23
0
-8.73746057e-23
5.95391251e-23
0
-1.14629007e-22
-3.17040191e-23
-5.92078971e-23
0
-8.65057777e-23
-8.22648806e-23
5.88786467e-23
0
1.13312002e-22
0
0
0
0
0
1.4350634e-22
8.51587592e-23
0
0
2.68925687e-23
0
6.18592142e-23
-5.35438714e-23
5.34636896e-23
-1.10884776e-22
-2.66518432e-23
8.39533167e-23
0
-2.65322892e-23
0
2.64528854e-23
0
2.63737185e-23
0
2.62947886e-23
0
2.6216095e-23
0
-5.63927955e-23
-5.21969928e-23
2.60594138e-23
0
-5.60803701e-23
0
0
-5.5847278e-23
2.9943667e-23
2.57874718e-23
0
0
1.06804703e-22
0
5.11899317e-23
2.55566379e-23
-1.61345243e-22
0
0
-5.49253171e-23
0
0
0
-2.52520702e-23
-7.97602897e-23
0
0
0
-2.50635623e-23
-1.29247668e-22
0
-5.40197869e-23
0
0
7.86351465e-23
0
0
4.94555716e-23
5.34990362e-23
-7.80788665e-23
-2.873438e-23
-2.86975201e-23
0
4.90128741e-23
0
2.44330964e-23
-2.43965103e-23
-4.87199435e-23
0
4.85741364e-23
1.01120334e-22
2.42143858e-23
0
0
1.76975399e-22
5.22568588e-23
1.52436794e-22
0
7.60026248e-23
0
0
-5.18259478e-23
2.38184862e-23
1.2303163e-22
0
7.52524456e-23
-9.8822082e-23
0
0
4.7139867e-23
0
5.11163134e-23
-5.10459248e-23
0
0
0
0
-5.0695603e-23
0
-5.05562074e-23
7.36712342e-23
0
0
0
0
4.60229946e-23
-4.59540743e-23
-5.00027899e-23
0
-4.57479371e-23
-9.54763804e-23
-4.56110275e-23
-4.55427219e-23
0
-4.54064269e-23
0
7.20233248e-23
0
7.18201071e-23
0
9.41174687e-23
4.493259e-23
9.38481269e-23
0
0
0
0
0
0
0
0
0
0
0
0
0
0
-6.99195439e-23
0
-4.78542547e-23
0
0
0
0
0
2.16726132e-23
0
0
0
0
4.30216502e-23
0
-1.36913743e-22
-1.11189177e-22
0
-2.13502424e-23
2.13182726e-23
-6.79765746e-23
4.66264694e-23
-2.12226454e-23
0
-4.64357874e-23
0
0
0
-4.20653466e-23
0
0
-4.5994178e-23
0
4.17513266e-23
0
0
4.56815625e-23
0
0
0
4.13156327e-23
0
6.1787973e-23
0
0
0
0
-1.2677098e-22
0
-1.26403907e-22
1.30338282e-22
-1.26037926e-22
4.05792793e-23
0
0
0
4.44542777e-23
-8.46702157e-23
-1.6909918e-22
-8.44291428e-23
-4.00956765e-23
0
0
0
4.39735676e-23
0
0
0
-1.66706423e-22
-1.66469128e-22
-4.36167947e-23
0
0
3.93220994e-23
-8.26439387e-23
-8.25263494e-23
0
0
0
0
0
0
0
7.74744092e-23
8.14758955e-23
-4.27387932e-23
3.85634394e-23
3.85056832e-23
-4.2565544e-23
3.83904514e-23
0
0
0
8.04395351e-23
0
3.80468007e-23
0
0
-4.19936529e-23
-3.78194139e-23
3.77627791e-23
0
0
0
0
0
3.74247479e-23
0
0
0
0
-7.84082651e-23
0
0
1.15053753e-22
7.79642631e-23
-1.14721746e-22
0
-3.6757738e-23
-7.75229149e-23
0
7.73032243e-23
4.06555803e-23
0
-3.64287055e-23
-3.63741617e-23
-7.67568884e-23
0
7.65395078e-23
0
0
-3.60485539e-23
0
0
-7.5891231e-23
3.99506328e-23
-3.98969724e-23
0
3.56723733e-23
-1.10974389e-22
0
-3.55123583e-23
-3.95766996e-23
0
0
1.49435496e-22
-7.04945179e-23
0
3.51417661e-23
3.50891438e-23
7.4190719e-23
0
7.39810036e-23
0
7.37719284e-23
3.47750456e-23
-7.35634619e-23
0
3.87365731e-23
0
0
-3.44637599e-23
-1.45883659e-22
3.84781419e-23
0
3.4257791e-23
-1.10854496e-22
-3.41552658e-23
3.41041142e-23
0
0
0
-7.19181052e-23
0
0
0
0
0
-3.35968351e-23
7.12105709e-23
0
-7.10097839e-23
-3.33960433e-23
-1.74965205e-22
-3.32960992e-23
0
3.31964547e-23
0
0
0
0
0
0
0
0
-6.55034357e-23
0
0
-6.52096061e-23
0
0
0
3.24099371e-23
-1.01201737e-22
-6.87434138e-23
-6.86466316e-23
-1.37100007e-22
-6.84535207e-23
3.21198263e-23
6.82609723e-23
0
1.6811375e-22
0
0
0
0
-6.75916064e-23
0
3.16420611e-23
0
0
0
0
-9.83350796e-23
-1.60911613e-22
0
6.66474639e-23
0
6.23428113e-23
6.63669717e-23
0
-6.61806764e-23
0
1.31989871e-22
-3.50098977e-23
0
9.6517293e-23
0
0
-1.00220333e-22
0
-9.58275274e-23
3.05242217e-23
0
3.45503913e-23
3.03872987e-23
-3.03417916e-23
3.02963568e-23
0
0
0
-9.44633869e-23
6.42579037e-23
-9.41930078e-23
1.24038327e-22
2.9935305e-23
0
0
0
9.33867046e-23
0
-3.37848623e-23
0
9.28531918e-23
0
-9.67051452e-23
0
-1.21724629e-22
0
0
-6.26573004e-23
-9.17956969e-23
-9.16643972e-23
-2.91385899e-23
-6.23074407e-23
0
-9.11411664e-23
3.30819662e-23
0
2.88777612e-23
-1.235731e-22
0
0
9.02330357e-23
2.86621862e-23
0
-6.12703323e-23
-6.11847558e-23
0
0
3.25231395e-23
0
0
-6.06739205e-23
-1.1706093e-22
-2.05590028e-22
0
5.62183871e-23
-3.21846185e-23
-1.1621781e-22
5.59662028e-23
-8.79411166e-23
-2.78993566e-23
0
0
2.77742041e-23
0
-1.46690476e-22
-5.94167575e-23
-2.76082105e-23
5.92512625e-23
0
-2.74843708e-23
-8.23296327e-23
-2.74021154e-23
-8.6200774e-23
8.60778443e-23
2.72791955e-23
-3.13558689e-23
0
8.55880074e-23
0
0
0
-5.81065698e-23
0
-3.10312599e-23
2.68734343e-23
0
-5.77035392e-23
-8.43761851e-23
5.75431648e-23
1.10808813e-22
0
0
-2.65531742e-23
5.7144342e-23
0
0
5.27889584e-23
0
0
-2.62760793e-23
0
-5.23948805e-23
0
0
0
-2.60408705e-23
5.61212735e-23
0
0
-5.17704767e-23
0
0
0
0
0
2.97710485e-23
1.06577975e-22
-2.55767546e-23
0
2.55002113e-23
0
1.86202304e-22
2.95033443e-23
0
0
0
0
0
2.51585828e-23
5.02418185e-23
5.01665819e-23
0
0
2.49707731e-23
0
0
0
0
0
0
0
0
0
0
0
4.90514565e-23
2.44889999e-23
-2.85698507e-23
0
0
0
0
0
2.42334467e-23
0
7.66002875e-23
0
0
0
2.40165233e-23
0
-7.59514613e-23
2.39087925e-23
-2.38729885e-23
7.56292334e-23
-1.74845832e-22
0
2.37303103e-23
-1.26708918e-22
0
0
-9.84714657e-23
0
0
1.49131075e-22
0
4.68247913e-23
0
1.4828901e-22
0
0
0
0
-4.63361502e-23
0
-7.34137454e-23
9.63741174e-23
0
-9.6098021e-23
4.59213771e-23
0
-2.2891974e-23
0
0
7.24853805e-23
-1.44766e-22
0
0
-4.53061733e-23
0
-1.43746794e-22
4.51029359e-23
0
9.40534341e-23
-2.65678314e-23
-2.24166904e-23
0
0
0
0
0
0
4.11752127e-24
0
1.67167191e-22
0
0
6.60514934e-23
0
0
0
1.61434107e-22
4.78231294e-23
0
0
-2.1754779e-23
0
4.3379343e-23
0
0
0
0
-2.56452797e-23
0
4.70441817e-23
0
0
-6.82186734e-23
0
-4.67237337e-23
0
4.24787025e-23
0
0
0
0
0
-8.83144394e-23
0
0
-8.79367492e-23
-1.33775596e-22
0
-4.17216199e-23
0
4.57142773e-23
4.15344616e-23
0
4.14101626e-23
-2.06740753e-23
-4.11752127e-24
0
-8.64428722e-23
0
8.61964884e-23
0
8.59508478e-23
4.49729118e-23
-8.15884215e-23
-4.48506414e-23
0
6.50343477e-23
0
1.25586559e-22
-4.45465671e-23
8.48545245e-23
-4.44255751e-23
-4.02476882e-23
4.43049437e-23
0
4.41846696e-23
0
0
0
3.98276858e-23
0
-2.06777511e-22
0
0
8.31782654e-23
0
0
1.26294185e-22
8.27057567e-23
-1.21823333e-22
4.32940409e-23
0
0
0
-7.78847564e-23
-2.0265536e-22
4.29433562e-23
0
3.87096388e-23
0
0
4.26535189e-23
8.10740977e-23
0
0
1.19034578e-22
1.18862491e-22
4.23085651e-23
0
4.21942706e-23
0
0
0
7.56983658e-23
0
0
1.17155719e-22
-7.93634747e-23
0
7.91382817e-23
3.74542094e-23
-3.73981215e-23
0
0
0
0
-4.12364621e-23
0
0
0
7.79117173e-23
1.55602436e-22
0
0
-7.74706854e-23
0
0
7.71416455e-23
0
3.6402789e-23
0
0
0
0
0
-7.62713888e-23
0
-7.60554499e-23
0
-3.58613179e-23
7.57327564e-23
-3.98715158e-23
-3.57004544e-23
3.56469915e-23
3.55936114e-23
3.96578327e-23
0
0
3.94984049e-23
0
0
3.52221738e-23
1.48912768e-22
-7.4351049e-23
-7.42458738e-23
3.50116688e-23
-3.90767599e-23
-3.49068885e-23
1.47653495e-22
0
0
0
1.4682027e-22
-1.07900784e-22
0
7.30993005e-23
3.85567626e-23
0
0
-3.42847556e-23
-3.42334117e-23
0
-7.23794439e-23
0
0
-1.44146467e-22
0
0
-3.38254422e-23
0
0
-7.14649408e-23
0
3.35729342e-23
0
0
-1.04384519e-22
-3.33722819e-23
0
0
0
-3.72903543e-23
0
0
0
3.29745729e-23
0
0
-6.56533166e-23
1.02450026e-22
1.02302767e-22
3.2679406e-23
6.52609385e-23
0
0
0
-1.01423879e-22
-3.65044001e-23
-6.87942808e-23
-6.86974324e-23
0
0
6.84077397e-23
0
0
-1.68239611e-22
0
0
0
0
0
-1.66807351e-22
0
-3.16195479e-23
-3.56897199e-23
0
6.70729394e-23
-9.84092405e-23
3.13835074e-23
-6.6790537e-23
9.79862765e-23
3.12427263e-23
3.1195942e-23
1.28714426e-22
-3.11025784e-23
-1.28341542e-22
0
0
-3.09166933e-23
0
0
0
3.07319193e-23
4.11752127e-24
6.53974135e-23
-6.53056492e-23
-6.52140215e-23
3.05025046e-23
3.04568253e-23
-3.04112184e-23
0
0
0
-6.45764483e-23
0
-3.01389948e-23
1.2861049e-22
0
3.00037991e-23
0
0
3.39867313e-23
0
0
0
0
0
0
-6.32325437e-23
-9.2657261e-23
0
3.35424433e-23
0
-3.34543822e-23
2.92929299e-23
6.26156441e-23
6.25280474e-23
0
-6.23532371e-23
0
0
0
0
2.89004911e-23
-9.06891636e-23
-6.17455209e-23
0
-6.15730544e-23
2.86847476e-23
2.86417931e-23
-2.85989013e-23
0
-1.18170766e-22
0
1.21946959e-22
8.92737458e-23
2.83429016e-23
3.24179791e-23
0
-3.23332849e-23
-8.86380456e-23
-2.81313205e-23
0
1.16306042e-22
2.8005129e-23
0
0
-2.78795057e-23
0
0
-2.77544439e-23
0
0
8.70073566e-23
-8.68832311e-23
0
0
0
0
0
2.73416133e-23
-3.14181904e-23
-5.86370966e-23
0
0
0
5.4193739e-23
0
2.70157739e-23
3.10928398e-23
0
0
0
-1.11373915e-22
-3.08914668e-23
-2.6733852e-23
0
5.33076872e-23
0
8.38397506e-23
0
-2.64945474e-23
-5.70272626e-23
0
0
0
0
-2.62573847e-23
-5.65536456e-23
0
-2.61396003e-23
0
-8.23016329e-23
0
0
0
0
0
0
0
1.07120674e-22
2.57122263e-23
2.56737224e-23
-5.53880744e-23
0
0
2.55202831e-23
0
-7.63317201e-23
0
0
0
-2.52918392e-23
-2.52539625e-23
0
5.03567664e-23
-7.9539563e-23
2.51030359e-23
-5.83659411e-23
0
0
0
2.90331629e-23
2.48783313e-23
-2.48410655e-23
-5.37252903e-23
-2.47667213e-23
0
5.35027391e-23
0
8.20911871e-23
0
0
4.90165376e-23
2.44715823e-23
0
2.43983438e-23
7.72029358e-23
2.4325311e-23
0
0
5.25499255e-23
0
7.6548726e-23
-2.82250966e-23
2.40714736e-23
7.62238099e-23
0
9.99715303e-23
-2.39276065e-23
0
0
0
4.75692266e-23
-7.5364466e-23
-9.89712493e-23
0
0
2.36070559e-23
0
0
-7.46209711e-23
0
0
0
-4.11752127e-24
5.07689525e-23
0
5.06293437e-23
-5.05597117e-23
-4.63726264e-23
-5.04206986e-23
0
0
0
0
2.29787689e-23
-7.70681047e-23
4.99374915e-23
0
0
-4.97319654e-23
0
0
0
-4.53418313e-23
9.46654044e-23
0
0
0
0
0
4.48686698e-23
0
9.35862865e-23
4.466741e-23
4.46005079e-23
4.86512411e-23
7.08180574e-23
0
0
4.83850981e-23
1.40838859e-22
4.82526023e-23
4.81865249e-23
-4.40029976e-23
-1.40046358e-22
0
0
8.74800075e-23
7.37468272e-23
0
4.35438186e-23
0
0
0
-9.06846462e-23
0
-2.15770156e-23
0
6.86548275e-23
0
4.28961015e-23
0
-4.68852644e-23
0
-4.26397558e-23
4.66934126e-23
0
-8.90144821e-23
0
0
0
-4.21947917e-23
0
0
0
-1.34062866e-22
0
-6.68431309e-23
0
0
8.73765134e-23
4.56846962e-23
0
0
1.28259602e-22
-6.60956371e-23
0
0
-6.5817615e-23
-4.51893019e-23
0
0
-6.54488422e-23
-2.04131609e-23
0
4.07041316e-23
-8.54038907e-23
4.46998519e-23
0
4.04608653e-23
0
0
0
0
0
4.42162012e-23
0
8.40748857e-23
0
0
0
0
8.34779878e-23
-1.22980007e-22
0
0
-3.94430851e-23
0
7.86501172e-23
3.92661591e-23
0
3.91486381e-23
-4.32075379e-23
8.21804965e-23
0
-8.19468699e-23
-3.88563901e-23
-1.20512166e-22
0
0
0
4.26838456e-23
0
0
4.25108542e-23
-4.24533698e-23
0
0
1.18609131e-22
8.03309675e-23
0
-8.01028711e-23
0
0
0
7.96487671e-23
0
7.5305176e-23
0
-7.91973339e-23
0
-7.89726155e-23
0
0
0
3.72038724e-23
0
3.70925265e-23
0
0
-4.11752127e-24
4.0988369e-23
3.68156353e-23
7.76385213e-23
-3.67054564e-23
0
0
7.71991265e-23
0
-7.28628768e-23
-1.13248181e-22
0
-1.12921606e-22
4.03312291e-23
3.61594789e-23
0
0
0
4.0060885e-23
0
0
-3.57821376e-23
0
0
0
0
0
0
-3.54087363e-23
0
0
0
3.51971162e-23
-1.13668276e-22
0
7.41959885e-23
-3.91042821e-23
0
1.47763232e-22
0
0
3.88431055e-23
0
0
-7.32571303e-23
3.45180414e-23
0
6.88294945e-23
0
0
0
0
-3.41578279e-23
-3.41066838e-23
0
-3.40046151e-23
0
0
0
0
1.0536982e-22
-7.15179538e-23
7.14170086e-23
0
7.1215607e-23
0
7.10148239e-23
0
0
0
0
3.73164561e-23
-7.0415992e-23
-3.72171106e-23
0
-3.30005291e-23
7.0019751e-23
0
0
-3.69208216e-23
6.96258878e-23
0
-3.67736671e-23
0
-3.25584172e-23
-3.25096628e-23
0
0
3.23638397e-23
-3.64328923e-23
0
0
-6.84583537e-23
0
1.00339938e-22
0
3.19781471e-23
0
0
0
0
3.17394319e-23
0
3.16444297e-23
-6.73116416e-23
0
0
-3.14553151e-23
-9.83421504e-23
-9.82010323e-23
-6.67459582e-23
0
-9.7779028e-23
9.76387672e-23
-3.11270612e-23
3.10804504e-23
0
0
0
-6.59069221e-23
0
-3.08022382e-23
0
-3.89451039e-23
0
-9.59719394e-23
0
-3.0526513e-23
0
-9.95404974e-23
0
0
0
-4.11752127e-24
0
-3.01627188e-23
0
3.00724482e-23
0
0
-9.39301699e-23
6.39029662e-23
0
2.98032576e-23
6.36347804e-23
0
0
0
3.36983018e-23
0
-3.36097753e-23
9.65792852e-23
-6.29254883e-23
-3.34774738e-23
0
-6.26617001e-23
-9.18022655e-23
0
6.23990872e-23
-2.90971407e-23
6.22246507e-23
2.90100643e-23
0
1.52851217e-22
-6.18773879e-23
-6.17908811e-23
0
0
5.74146711e-23
0
0
2.8578552e-23
0
0
0
-2.84077479e-23
0
-5.66454778e-23
0
-3.23554899e-23
1.16900287e-22
-6.04244479e-23
0
-8.83251379e-23
2.80271759e-23
3.21027252e-23
0
-2.79014499e-23
0
8.75713772e-23
-5.96700921e-23
0
0
0
-8.69483869e-23
0
0
-1.14063236e-22
5.90080693e-23
0
-8.62069116e-23
8.60840171e-23
-2.72812421e-23
2.72403929e-23
0
8.55941259e-23
0
0
0
-5.39930915e-23
8.910342e-23
-8.4864789e-23
0
-2.68352135e-23
-2.67950176e-23
-2.67548952e-23
0
-2.66748243e-23
0
-5.73075076e-23
-2.65551684e-23
0
0
2.64360499e-23
0
0
0
0
0
0
0
-2.61210014e-23
0
0
-1.12250355e-22
0
5.59695219e-23
0
0
0
5.1542112e-23
0
2.56939321e-23
8.10838931e-23
8.09686211e-23
0
5.51982687e-23
5.51217691e-23
-2.54639392e-23
-5.08515969e-23
5.07754596e-23
1.60333316e-22
5.47410124e-23
-2.93913653e-23
0
0
0
0
2.50851716e-23
-2.50476112e-23
0
1.04008123e-22
-2.49352504e-23
-2.48979151e-23
-2.48606242e-23
0
-1.81738651e-22
0
-2.47120471e-23
-1.80960319e-22
0
0
2.45643572e-23
0
0
-4.11752127e-24
2.44175415e-23
-2.84985051e-23
4.86889293e-23
-4.86160325e-23
-1.33710628e-22
7.6823323e-23
0
0
-7.6497177e-23
1.00479195e-22
1.28506789e-22
0
5.20822389e-23
0
0
0
2.79565485e-23
-2.38033247e-23
1.22955951e-22
-2.37320927e-23
0
-4.73221458e-23
1.49988848e-22
0
-1.73119552e-22
0
-9.80552725e-23
5.10160595e-23
-9.77741294e-23
-5.08757062e-23
-5.08056784e-23
0
4.65484347e-23
-2.32393641e-23
2.32045683e-23
-5.04571462e-23
5.0387761e-23
0
0
4.60626799e-23
4.59937074e-23
5.00423479e-23
0
4.99049073e-23
0
0
0
0
4.54455737e-23
0
0
0
0
9.43301588e-23
9.41950801e-23
0
0
9.79085372e-23
-1.42543871e-22
4.47025532e-23
4.87531429e-23
0
-7.08705744e-23
0
0
0
-4.83535892e-23
0
0
0
4.80892068e-23
0
0
0
0
0
0
0
0
9.08827152e-23
0
4.73702891e-23
0
0
0
0
-6.43948243e-23
4.69831174e-23
-9.7955388e-23
0
0
4.26094067e-23
-8.92087285e-23
0
0
0
0
4.63455115e-23
0
0
2.10192846e-23
0
0
0
0
0
0
-8.73172843e-23
0
0
0
-4.54687768e-23
0
2.06137522e-23
0
0
8.62026608e-23
4.09811076e-23
4.09197292e-23
4.08584618e-23
0
0
0
-1.25960321e-22
8.52244122e-23
4.04927171e-23
-4.4549603e-23
8.48605993e-23
0
0
0
0
1.28445511e-22
4.00101529e-23
0
0
0
-8.3659586e-23
-8.35404722e-23
0
0
0
0
-8.29475657e-23
0
0
8.2593965e-23
1.25773413e-22
1.214799e-22
0
0
0
0
0
3.87706045e-23
8.15426157e-23
0
-4.27142071e-23
4.2656411e-23
8.10798775e-23
0
0
0
0
-8.05053408e-23
3.81367204e-23
3.80796076e-23
0
0
0
4.19695455e-23
0
-4.18562643e-23
0
3.76258072e-23
7.51389089e-23
0
0
0
-4.14624473e-23
-1.20102029e-22
0
3.71774031e-23
0
0
0
-3.69552086e-23
-7.79172596e-23
1.55613499e-22
0
0
0
3.66244085e-23
0
7.30296093e-23
0
7.69285689e-23
0
1.13007219e-22
7.66019557e-23
0
0
0
0
-7.60608545e-23
0
7.58455378e-23
0
7.56308811e-23
0
0
3.97138023e-23
0
0
0
7.90021262e-23
7.0661111e-23
0
-7.45671645e-23
0
-7.43563291e-23
0
7.41461127e-23
3.49618644e-23
0
0
1.12650146e-22
0
0
0
0
7.32079464e-23
-1.11715476e-22
-7.3001175e-23
3.85077682e-23
0
0
-1.06825474e-22
-1.06671663e-22
-3.82510423e-23
0
0
0
0
0
-7.17734736e-23
0
0
0
-1.04994953e-22
0
3.35251733e-23
0
0
0
3.33248087e-23
0
3.32250813e-23
0
0
0
7.01705334e-23
-3.70945708e-23
0
-3.28783563e-23
0
0
0
6.94812329e-23
-3.26329222e-23
-3.25840484e-23
-3.25352576e-23
0
3.24378901e-23
0
0
-6.87022817e-23
0
0
0
0
0
0
0
6.79325982e-23
3.18597589e-23
0
1.31175178e-22
0
0
0
-9.88412338e-23
-1.30226665e-22
-6.70776663e-23
0
0
0
-6.67013874e-23
0
-3.53158026e-23
3.11515678e-23
9.74322669e-23
0
-6.61411698e-23
0
-9.68745779e-23
-9.673566e-23
0
0
-3.07342284e-23
0
0
6.11927212e-23
1.26319697e-22
0
3.04591095e-23
-6.49445247e-23
9.5221402e-23
6.47624813e-23
0
0
0
-6.44000357e-23
9.44058916e-23
3.00510511e-23
0
0
0
-3.39889708e-23
0
-1.27363278e-22
-6.35924326e-23
5.93858475e-23
0
3.37215802e-23
3.3677252e-23
0
0
0
0
-3.34565874e-23
6.27077745e-23
0
2.9207456e-23
0
0
-2.3018166e-23
0
0
0
0
-2.3018166e-23
0
-2.3018166e-23
0
0
-2.3018166e-23
0
0
0
0
-2.3018166e-23
0
0
0
0
-2.3018166e-23
0
0
0
0
-2.3018166e-23
0
-2.3018166e-23
0
0
-2.3018166e-23
0
0
0
0
-2.3018166e-23
0
0
0
0
-2.3018166e-23
0
0
0
0
-2.3018166e-23
0
0
-2.3018166e-23
0
-2.3018166e-23
0
0
0
0
-2.3018166e-23
0
0
0
0
-2.3018166e-23
0
0
0
0
-2.3018166e-23
0
0
-2.3018166e-23
0
-2.3018166e-23
0
0
0
0
-2.3018166e-23
0
0
0
0
-2.3018166e-23
0
0
0
0
-2.3018166e-23
0
0
-2.3018166e-23
0
-2.3018166e-23
0
0
0
0
0
-2.3018166e-23
0
0
0
0
-2.3018166e-23
0
0
0
0
-2.3018166e-23
0
-2.3018166e-23
0
0
-2.3018166e-23
0
0
0
0
-2.3018166e-23
0
0
0
0
-2.3018166e-23
0
0
0
0
-2.3018166e-23
0
-2.3018166e-23
0
0
-2.3018166e-23
0
0
0
0
-2.3018166e-23
0
0
0
0
-2.3018166e-23
0
0
0
0
-2.3018166e-23
0
-2.3018166e-23
0
0
-2.3018166e-23
0
0
0
0
-2.3018166e-23
0
0
0
0
-2.3018166e-23
0
0
0
0
-2.3018166e-23
0
0
-2.3018166e-23
0
-2.3018166e-23
0
0
0
0
-2.3018166e-23
0
0
0
0
-2.3018166e-23
0
0
0
0
-2.3018166e-23
0
0
-2.3018166e-23
0
-2.3018166e-23
0
0
0
0
-2.3018166e-23
0
0
0
0
-2.3018166e-23
0
0
0
0
-2.3018166e-23
0
0
-2.3018166e-23
0
-2.3018166e-23
0
0
0
0
0
-2.3018166e-23
0
0
0
0
-2.3018166e-23
0
0
0
0
-2.3018166e-23
0
-2.3018166e-23
0
0
-2.3018166e-23
0
0
0
0
-2.3018166e-23
0
0
0
0
-2.3018166e-23
0
0
0
0
-2.3018166e-23
0
-2.3018166e-23
0
0
-2.3018166e-23
0
0
0
0
-2.3018166e-23
0
0
0
0
-2.3018166e-23
0
0
0
0
-2.3018166e-23
0
-2.3018166e-23
0
0
-2.3018166e-23
0
0
0
0
-2.3018166e-23
0
0
0
0
-2.3018166e-23
0
0
0
0
-2.3018166e-23
0
0
-2.3018166e-23
0
-2.3018166e-23
0
0
0
0
-2.3018166e-23
0
0
0
0
-2.3018166e-23
0
0
0
0
-2.3018166e-23
0
0
-2.3018166e-23
0
-2.3018166e-23
0
0
0
0
-2.3018166e-23
0
0
0
0
-2.3018166e-23
0
0
0
0
-2.3018166e-23
0
0
-2.3018166e-23
0
-2.3018166e-23
0
0
0
0
-2.3018166e-23
0
0
0
0
0
-2.3018166e-23
0
0
0
0
-2.3018166e-23
0
-2.3018166e-23
0
0
-2.3018166e-23
0
0
0
0
-2.3018166e-23
0
0
0
0
-2.3018166e-23
0
0
0
0
-2.3018166e-23
0
-2.3018166e-23
0
0
-2.3018166e-23
0
0
0
0
-2.3018166e-23
0
0
0
0
-2.3018166e-23
0
0
0
0
-2.3018166e-23
0
-2.3018166e-23
0
0
-2.3018166e-23
0
0
0
0
-2.3018166e-23
0
0
0
0
-2.3018166e-23
0
0
0
0
-2.3018166e-23
0
0
-2.3018166e-23
0
-2.3018166e-23
0
0
0
0
-2.3018166e-23
0
0
0
0
-2.3018166e-23
0
0
0
0
-2.3018166e-23
0
0
-2.3018166e-23
0
-2.3018166e-23
0
0
0
0
-2.3018166e-23
0
0
0
0
-2.3018166e-23
0
0
0
0
-2.3018166e-23
0
0
-2.3018166e-23
0
-2.3018166e-23
0
0
0
0
-2.3018166e-23
0
0
0
0
-2.3018166e-23
0
0
0
0
0
-2.3018166e-23
0
-2.3018166e-23
0
0
-2.3018166e-23
0
0
0
0
-2.3018166e-23
0
0
0
0
-2.3018166e-23
0
0
0
0
-2.3018166e-23
0
-2.3018166e-23
0
0
-2.3018166e-23
0
0
0
0
0
0
0
0
0
0
0
0
0
0
0
0
0
0
0
0
0
0
0
0
0
0
0
0
0
0
0
0
0
0
0
0
0
0
0
0
0
0
0
0
0
0
0
0
0
0
0
0
0
0
0
0
0
0
0
0
0
0
0
0
0
0
0
0
0
0
0
0
0
0
0
0
0
0
0
0
0
0
0
0
0
0
0
0
0
0
0
0
0
0
0
0
0
0
0
0
0
0
0
0
0
0
0
0
0
0
0
0
0
0
0
0
0
0
0
0
0
0
0
0
0
0
0
0
0
0
0
0
0
0
0
0
0
0
0
0
0
0
0
0
0
0
0
0
0
0
0
0
0
0
0
0
0
0
0
0
0
0
0
0
0
0
0
0
0
0
0
0
0
0
0
0
0
0
0
0
0
0
0
0
0
0
0
0
0
0
0
0
0
0
0
0
0
0
0
0
0
0
0
0
0
0
0
0
0
0
0
0
0
0
0
0
0
0
0
0
0
0
0
0
0
0
0
0
0
0
0
0
0
0
0
0
0
0
0
0
0
0
0
0
0
0
0
0
0
0
0
0
0
0
0
0
0
0
0
0
0
0
0
0
0
0
0
0
0
0
0
0
0
0
0
0
0
0
0
0
0
0
0
0
0
0
0
0
0
0
0
0
0
0
0
0
0
0
0
0
0
0
0
0
0
0
0
0
0
0
0
0
0
0
0
0
0
0
0
0
0
0
0
0
0
0
0
0
0
0
0
0
0
0
0
0
0
0
0
0
0
0
0
0
0
0
0
0
0
0
0
0
0
0
0
0
0
0
0
0
0
0
0
0
0
0
0
0
0
0
0
0
0
0
0
0
0
0
0
0
0
0
0
0
0
0
0
0
0
0
0
0
0
0
0
0
0
0
0
0
0
0
0
0
0
0
0
0
0
0
0
0
0
0
0
0
0
0
0
0
0
0
0
0
0
0
0
0
0
0
0
0
0
0
0
0
0
0
0
0
0
0
0
0
0
0
0
0
0
0
0
0
0
0
0
0
0
0
0
0
0
0
0
0
0
0
0
0
0
0
0
0
0
0
0
0
0
0
0
0
0
0
0
0
0
0
0
0
0
0
0
0
0
0
0
0
0
0
0
0
0
0
0
0
0
0
0
0
0
0
0
0
0
0
0
0
0
0
0
0
0
0
0
0
0
0
0
0
0
0
0
0
0
0
0
0
0
0
0
0
0
0
0
0
0
0
0
0
0
0
0
0
0
0
0
0
0
0
0
0
0
0
0
0
0
0
0
0
0
0
0
0
0
0
0
0
0
0
0
0
0
0
0
0
0
0
0
0
0
0
0
0
0
0
0
0
0
0
0
0
0
0
0
0
0
0
0
0
0
0
0
0
0
0
0
0
0
0
0
0
0
0
0
0
0
0
0
0
0
0
0
0
0
0
0
0
0
0
0
0
0
0
0
0
0
0
0
0
0
0
0
0
0
0
0
0
0
0
0
0
0
0
0
0
0
0
0
0
0
0
0
0
0
0
0
0
0
0
0
0
0
0
0
0
0
0
0
0
0
0
0
0
0
0
0
0
0
0
0
0
0
0
0
0
0
0
0
0
0
0
0
0
0
0
0
0
0
0
0
0
0
0
0
0
0
0
0
0
0
0
0
0
0
0
0
0
0
0
0
0
0
0
0
0
0
0
0
0
0
0
0
0
0
0
0
0
0
0
0
0
0
0
0
0
0
0
0
0
0
0
0
0
0
0
0
0
0
0
0
0
0
0
0
0
0
0
0
0
0
0
0
0
0
0
0
0
0
0
0
0
0
0
0
0
0
0
0
0
0
0
0
0
0
0
0
0
0
0
0
0
0
0
0
0
0
0
0
0
0
0
0
0
0
0
0
0
0
0
0
0
0
0
0
0
0
0
0
0
0
0
0
0
0
0
0
0
0
0
0
0
0
0
0
0
0
0
0
0
0
0
0
0
0
0
0
0
0
0
0
0
0
0
0
0
0
0
0
0
0
0
0
0
0
0
0
0
0
0
0
0
0
0
0
0
0
0
0
0
0
0
0
0
0
0
0
0
0
0
0
0
0
0
0
0
0
0
0
0
0
0
0
0
0
0
0
0
0
0
0
0
0
0
0
0
0
0
0
0
0
0
0
0
0
0
0
0
0
0
0
0
0
0
0
0
0
0
0
0
0
0
0
0
0
0
0
0
0
0
0
0
0
0
0
0
0
0
0
0
0
0
0
0
0
0
0
0
0
0
0
0
0
0
0
0
0
0
0
0
0
0
0
0
0
0
0
0
0
0
0
0
0
0
0
0
0
0
0
0
0
0
0
0
0
0
0
0
0
0
0
0
0
0
0
0
0
0
0
0
0
0
0
0
0
0
0
0
0
0
0
0
0
0
0
0
0
0
0
0
0
0
0
0
0
0
0
0
0
0
0
0
0
0
0
0
0
0
0
0
0
0
0
0
0
0
0
0
0
0
0
0
0
0
0
0
0
0
0
0
0
0
0
0
0
0
0
0
0
0
0
0
0
0
0
0
0
0
0
0
0
0
0
0
0
0
0
0
0
0
0
0
0
0
0
0
0
0
0
0
0
0
0
0
0
0
0
0
0
0
0
0
0
0
0
0
0
0
0
0
0
0
0
0
0
0
0
0
0
0
0
0
0
0
0
0
0
0
0
0
0
0
0
0
0
0
0
0
0
0
0
0
0
0
0
0
0
0
0
0
0
0
0
0
0
0
0
0
0
0
0
0
0
0
0
0
0
0
0
0
0
0
0
0
0
0
0
0
0
0
0
0
0
0
0
0
0
0
0
0
0
0
0
0
0
0
0
0
0
0
0
0
0
0
0
0
0
0
0
0
0
0
0
0
0
0
0
0
0
0
0
0
0
0
0
0
0
0
0
0
0
0
0
0
0
0
0
0
0
0
0
0
0
0
0
0
0
0
0
0
0
0
0
0
0
0
0
0
0
0
0
0
0
0
0
0
0
0
0
0
0
0
0
0
0
0
0
0
0
0
0
0
0
0
0
0
0
0
0
0
0
0
0
0
0
0
0
0
0
0
0
0
0
0
0
0
0
0
0
0
0
0
0
0
0
0
0
0
0
0
0
0
0
0
0
0
0
0
0
0
0
0
0
0
0
0
0
0
0
0
0
0
0
0
0
0
0
0
0
0
0
0
0
0
0
0
0
0
0
0
0
0
0
0
0
0
0
0
0
0
0
0
0
0
0
0
0
0
0
0
0
0
0
0
0
0
0
0
0
0
0
0
0
0
0
0
0
0
0
0
0
0
0
0
0
0
0
0
0
0
0
0
0
0
0
0
0
0
0
0
0
0
0
0
0
0
0
0
0
0
0
0
0
0
0
0
0
0
0
0
0
0
0
0
0
)
;

boundaryField
{
    front
    {
        type            wedge;
    }
    back
    {
        type            wedge;
    }
    wall
    {
        type            calculated;
        value           uniform 0;
    }
    inlet
    {
        type            calculated;
        value           uniform 0;
    }
    outlet
    {
        type            calculated;
        value           uniform 0;
    }
    axis
    {
        type            empty;
    }
}


// ************************************************************************* //
