/*--------------------------------*- C++ -*----------------------------------*\
| =========                 |                                                 |
| \\      /  F ield         | OpenFOAM: The Open Source CFD Toolbox           |
|  \\    /   O peration     | Version:  2112                                  |
|   \\  /    A nd           | Website:  www.openfoam.com                      |
|    \\/     M anipulation  |                                                 |
\*---------------------------------------------------------------------------*/
FoamFile
{
    version     2.0;
    format      ascii;
    arch        "LSB;label=32;scalar=64";
    class       volVectorField;
    location    "0";
    object      C;
}
// * * * * * * * * * * * * * * * * * * * * * * * * * * * * * * * * * * * * * //

dimensions      [0 1 0 0 0 0 0];

internalField   nonuniform List<vector> 
4000
(
(3.33013333e-05 -1.13645479e-22 1.57618428e-05)
(3.33013333e-05 0 4.7309167e-05)
(3.33013333e-05 0 7.8903804e-05)
(3.33013333e-05 0 0.000110545825)
(3.33013333e-05 1.53399524e-22 0.0001422353)
(3.33013333e-05 0 0.000173972301)
(3.33013333e-05 0 0.0002057569)
(3.33013333e-05 0 0.000237589167)
(3.33013333e-05 -1.12340197e-22 0.000269469175)
(3.33013333e-05 0 0.000301396994)
(3.33013333e-05 0 0.000333372696)
(3.33013333e-05 -7.18248101e-23 0.000365396354)
(3.33013333e-05 0 0.000397468038)
(3.33013333e-05 0 0.000429587822)
(3.33013333e-05 0 0.000461755777)
(3.33013333e-05 0 0.000493971976)
(3.33013333e-05 -3.97618376e-23 0.000526236491)
(3.33013333e-05 7.52993998e-23 0.000558549393)
(3.33013333e-05 0 0.000590910757)
(3.33013333e-05 0 0.000623320655)
(3.33013333e-05 0 0.000655779159)
(3.33013333e-05 -7.48739792e-23 0.000688286342)
(3.33013333e-05 7.06505004e-23 0.000720842277)
(3.33013333e-05 0 0.000753447038)
(3.33013333e-05 -1.13893635e-22 0.000786100697)
(3.33013333e-05 0 0.000818803329)
(3.33013333e-05 3.51141277e-23 0.000851555006)
(3.33013333e-05 -3.91790658e-23 0.000884355801)
(3.33013333e-05 7.41356017e-23 0.00091720579)
(3.33013333e-05 0 0.000950105045)
(3.33013333e-05 1.08830323e-22 0.00098305364)
(3.33013333e-05 -1.47643033e-22 0.00101605165)
(3.33013333e-05 0 0.00104909915)
(3.33013333e-05 0 0.00108219621)
(3.33013333e-05 -7.35088414e-23 0.0011153429)
(3.33013333e-05 -3.46437042e-23 0.00114853931)
(3.33013333e-05 3.45918258e-23 0.00118178551)
(3.33013333e-05 7.31975707e-23 0.00121508156)
(3.33013333e-05 0 0.00124842755)
(3.33013333e-05 0 0.00128182356)
(3.33013333e-05 0 0.00131526964)
(3.33013333e-05 0 0.00134876589)
(3.33013333e-05 -6.8564361e-23 0.00138231237)
(3.33013333e-05 0 0.00141590916)
(3.33013333e-05 -7.24766864e-23 0.00144955634)
(3.33013333e-05 0 0.00148325398)
(3.33013333e-05 -3.81948134e-23 0.00151700216)
(3.33013333e-05 0 0.00155080096)
(3.33013333e-05 3.39753073e-23 0.00158465044)
(3.33013333e-05 0 0.00161855069)
(3.33013333e-05 -1.05738405e-22 0.00165250178)
(3.33013333e-05 -7.1763326e-23 0.00168650378)
(3.33013333e-05 6.75445063e-23 0.00172055678)
(3.33013333e-05 0 0.00175466086)
(3.33013333e-05 -3.77887031e-23 0.00178881607)
(3.33013333e-05 0 0.00182302252)
(3.33013333e-05 3.35704121e-23 0.00185728026)
(3.33013333e-05 -1.04677944e-22 0.00189158938)
(3.33013333e-05 0 0.00192594996)
(3.33013333e-05 3.75373447e-23 0.00196036206)
(3.33013333e-05 7.08570759e-23 0.00199482578)
(3.33013333e-05 0 0.00202934119)
(3.33013333e-05 0 0.00206390835)
(3.33013333e-05 0 0.00209852736)
(3.33013333e-05 -1.36798889e-22 0.00213319829)
(3.33013333e-05 0 0.00216792122)
(3.33013333e-05 0 0.00220269622)
(3.33013333e-05 0 0.00223752337)
(3.33013333e-05 0 0.00227240276)
(3.33013333e-05 0 0.00230733446)
(3.33013333e-05 0 0.00234231854)
(3.33013333e-05 3.6941715e-23 0.00237735509)
(3.33013333e-05 3.6892561e-23 0.00241244419)
(3.33013333e-05 3.68434805e-23 0.00244758591)
(3.33013333e-05 0 0.00248278034)
(3.33013333e-05 -1.38747118e-22 0.00251802755)
(3.33013333e-05 3.25791587e-23 0.00255332762)
(3.33013333e-05 -3.25303713e-23 0.00258868063)
(3.33013333e-05 0 0.00262408666)
(3.33013333e-05 -4.11752127e-24 0.00265954579)
(3.33013333e-05 0 0.0026950581)
(3.33013333e-05 0 0.00273062367)
(3.33013333e-05 3.22875297e-23 0.00276624257)
(3.33013333e-05 0 0.0028019149)
(3.33013333e-05 0 0.00283764073)
(3.33013333e-05 -3.62602169e-23 0.00287342013)
(3.33013333e-05 0 0.0029092532)
(3.33013333e-05 6.82105237e-23 0.00294514001)
(3.33013333e-05 0 0.00298108063)
(3.33013333e-05 -9.99693043e-23 0.00301707516)
(3.33013333e-05 0 0.00305312367)
(3.33013333e-05 -9.96824437e-23 0.00308922624)
(3.33013333e-05 0 0.00312538296)
(3.33013333e-05 0 0.00316159391)
(3.33013333e-05 0 0.00319785916)
(3.33013333e-05 3.1664592e-23 0.0032341788)
(3.33013333e-05 -6.73518699e-23 0.00327055291)
(3.33013333e-05 -3.56873496e-23 0.00330698157)
(3.33013333e-05 6.71626256e-23 0.00334346486)
(3.33013333e-05 -9.85435645e-23 0.00338000287)
(3.33013333e-05 -6.69739477e-23 0.00341659568)
(3.33013333e-05 0 0.00345324337)
(3.33013333e-05 3.54516787e-23 0.00348994602)
(3.33013333e-05 0 0.00352670371)
(3.33013333e-05 0 0.00356351653)
(3.33013333e-05 3.53111204e-23 0.00360038456)
(3.33013333e-05 3.11468876e-23 0.00363730788)
(3.33013333e-05 0 0.00367428658)
(3.33013333e-05 9.72785372e-23 0.00371132074)
(3.33013333e-05 0 0.00374841043)
(3.33013333e-05 0 0.00378555576)
(3.33013333e-05 0 0.00382275679)
(3.33013333e-05 0 0.00386001361)
(3.33013333e-05 -3.49393759e-23 0.00389732631)
(3.33013333e-05 -6.15513987e-23 0.00393469497)
(3.33013333e-05 0 0.00397211967)
(3.33013333e-05 6.13671904e-23 0.0040096005)
(3.33013333e-05 0 0.00404713754)
(3.33013333e-05 0 0.00408473087)
(3.33013333e-05 -3.05459561e-23 0.00412238059)
(3.33013333e-05 0 0.00416008677)
(3.33013333e-05 1.25935683e-22 0.0041978495)
(3.33013333e-05 -6.49353909e-23 0.00423566886)
(3.33013333e-05 6.4844316e-23 0.00427354494)
(3.33013333e-05 0 0.00431147783)
(3.33013333e-05 -3.02725274e-23 0.00434946761)
(3.33013333e-05 3.02271948e-23 0.00438751436)
(3.33013333e-05 0 0.00442561817)
(3.33013333e-05 -3.01367322e-23 0.00446377913)
(3.33013333e-05 0 0.00450199732)
(3.33013333e-05 -3.00465412e-23 0.00454027282)
(3.33013333e-05 0 0.00457860573)
(3.33013333e-05 0 0.00461699613)
(3.33013333e-05 0 0.0046554441)
(3.33013333e-05 0 0.00469394974)
(3.33013333e-05 0 0.00473251313)
(3.33013333e-05 0 0.00477113435)
(3.33013333e-05 0 0.00480981349)
(3.33013333e-05 0 0.00484855064)
(3.33013333e-05 -6.34055356e-23 0.00488734588)
(3.33013333e-05 3.37171378e-23 0.00492619931)
(3.33013333e-05 0 0.00496511101)
(3.33013333e-05 2.95110315e-23 0.00500408107)
(3.33013333e-05 0 0.00504310957)
(3.33013333e-05 2.94227134e-23 0.0050821966)
(3.33013333e-05 9.63710002e-23 0.00512134225)
(3.33013333e-05 -3.34521797e-23 0.00516054661)
(3.33013333e-05 0 0.00519980977)
(3.33013333e-05 0 0.00523913182)
(3.33013333e-05 2.92030703e-23 0.00527851283)
(3.33013333e-05 -6.24361998e-23 0.00531795291)
(3.33013333e-05 0 0.00535745213)
(3.33013333e-05 -6.22616655e-23 0.0053970106)
(3.33013333e-05 6.21745963e-23 0.00543662839)
(3.33013333e-05 0 0.0054763056)
(3.33013333e-05 0 0.00551604232)
(3.33013333e-05 -2.88983221e-23 0.00555583862)
(3.33013333e-05 9.48001832e-23 0.00559569462)
(3.33013333e-05 2.88118376e-23 0.00563561038)
(3.33013333e-05 0 0.00567558601)
(3.33013333e-05 5.7451221e-23 0.0057156216)
(3.33013333e-05 0 0.00575571722)
(3.33013333e-05 9.00364474e-23 0.00579587298)
(3.33013333e-05 0 0.00583608896)
(3.33013333e-05 2.85539316e-23 0.00587636526)
(3.33013333e-05 3.2628693e-23 0.00591670196)
(3.33013333e-05 5.69369527e-23 0.00595709915)
(3.33013333e-05 0 0.00599755693)
(3.33013333e-05 0 0.00603807539)
(3.33013333e-05 0 0.00607865461)
(3.33013333e-05 0 0.00611929469)
(3.33013333e-05 8.88853943e-23 0.00615999572)
(3.33013333e-05 0 0.00620075779)
(3.33013333e-05 0 0.00624158099)
(3.33013333e-05 0 0.00628246542)
(3.33013333e-05 -6.02916912e-23 0.00632341116)
(3.33013333e-05 0 0.00636441832)
(3.33013333e-05 0 0.00640548697)
(3.33013333e-05 -3.20786141e-23 0.00644661721)
(3.33013333e-05 -1.15794406e-22 0.00648780914)
(3.33013333e-05 2.78774126e-23 0.00652906285)
(3.33013333e-05 -5.56713329e-23 0.00657037842)
(3.33013333e-05 0 0.00661175596)
(3.33013333e-05 -8.73746057e-23 0.00665319555)
(3.33013333e-05 5.95391251e-23 0.00669469729)
(3.33013333e-05 0 0.00673626128)
(3.33013333e-05 -1.14629007e-22 0.0067778876)
(3.33013333e-05 -3.17040191e-23 0.00681957634)
(3.33013333e-05 -5.92078971e-23 0.00686132761)
(3.33013333e-05 0 0.0069031415)
(3.33013333e-05 -8.65057777e-23 0.0069450181)
(3.33013333e-05 -8.22648806e-23 0.00698695749)
(3.33013333e-05 5.88786467e-23 0.00702895979)
(3.33013333e-05 0 0.00707102508)
(3.33013333e-05 1.13312002e-22 0.00711315346)
(3.33013333e-05 0 0.00715534502)
(3.33013333e-05 0 0.00719759985)
(3.33013333e-05 0 0.00723991806)
(3.33013333e-05 0 0.00728229973)
(3.33013333e-05 0 0.00732474497)
(3.33013333e-05 1.4350634e-22 0.00736725386)
(3.33013333e-05 8.51587592e-23 0.0074098265)
(3.33013333e-05 0 0.00745246299)
(3.33013333e-05 0 0.00749516342)
(3.33013333e-05 2.68925687e-23 0.0075379279)
(3.33013333e-05 0 0.00758075651)
(3.33013333e-05 6.18592142e-23 0.00762364935)
(3.33013333e-05 -5.35438714e-23 0.00766660652)
(3.33013333e-05 5.34636896e-23 0.00770962811)
(3.33013333e-05 -1.10884776e-22 0.00775271423)
(3.33013333e-05 -2.66518432e-23 0.00779586496)
(3.33013333e-05 8.39533167e-23 0.00783908041)
(3.33013333e-05 0 0.00788236067)
(3.33013333e-05 -2.65322892e-23 0.00792570584)
(3.33013333e-05 0 0.00796911601)
(3.33013333e-05 2.64528854e-23 0.00801259129)
(3.33013333e-05 0 0.00805613177)
(3.33013333e-05 2.63737185e-23 0.00809973755)
(3.33013333e-05 0 0.00814340873)
(3.33013333e-05 2.62947886e-23 0.0081871454)
(3.33013333e-05 0 0.00823094767)
(3.33013333e-05 2.6216095e-23 0.00827481563)
(3.33013333e-05 0 0.00831874938)
(3.33013333e-05 -5.63927955e-23 0.00836274901)
(3.33013333e-05 -5.21969928e-23 0.00840681464)
(3.33013333e-05 2.60594138e-23 0.00845094635)
(3.33013333e-05 0 0.00849514425)
(3.33013333e-05 -5.60803701e-23 0.00853940843)
(3.33013333e-05 0 0.008583739)
(3.33013333e-05 0 0.00862813606)
(3.33013333e-05 -5.5847278e-23 0.00867259969)
(3.33013333e-05 2.9943667e-23 0.00871713002)
(3.33013333e-05 2.57874718e-23 0.00876172712)
(3.33013333e-05 0 0.00880639111)
(3.33013333e-05 0 0.00885112208)
(3.33013333e-05 1.06804703e-22 0.00889592014)
(3.33013333e-05 0 0.00894078538)
(3.33013333e-05 5.11899317e-23 0.00898571791)
(3.33013333e-05 2.55566379e-23 0.00903071783)
(3.33013333e-05 -1.61345243e-22 0.00907578523)
(3.33013333e-05 0 0.00912092023)
(3.33013333e-05 0 0.00916612291)
(3.33013333e-05 -5.49253171e-23 0.00921139339)
(3.33013333e-05 0 0.00925673176)
(3.33013333e-05 0 0.00930213813)
(3.33013333e-05 0 0.00934761259)
(3.33013333e-05 -2.52520702e-23 0.00939315525)
(3.33013333e-05 -7.97602897e-23 0.00943876622)
(3.33013333e-05 0 0.00948444559)
(3.33013333e-05 0 0.00953019347)
(3.33013333e-05 0 0.00957600996)
(3.33013333e-05 -2.50635623e-23 0.00962189516)
(3.33013333e-05 -1.29247668e-22 0.00966784917)
(3.33013333e-05 0 0.00971387211)
(3.33013333e-05 -5.40197869e-23 0.00975996407)
(3.33013333e-05 0 0.00980612515)
(3.33013333e-05 0 0.00985235546)
(3.33013333e-05 7.86351465e-23 0.00989865511)
(3.33013333e-05 0 0.00994502419)
(3.33013333e-05 0 0.00999146282)
(3.33013333e-05 4.94555716e-23 0.0100379711)
(3.33013333e-05 5.34990362e-23 0.0100845491)
(3.33013333e-05 -7.80788665e-23 0.010131197)
(3.33013333e-05 -2.873438e-23 0.0101779148)
(3.33013333e-05 -2.86975201e-23 0.0102247027)
(3.33013333e-05 0 0.0102715608)
(3.33013333e-05 4.90128741e-23 0.0103184891)
(3.33013333e-05 0 0.0103654879)
(3.33013333e-05 2.44330964e-23 0.0104125571)
(3.33013333e-05 -2.43965103e-23 0.0104596969)
(3.33013333e-05 -4.87199435e-23 0.0105069074)
(3.33013333e-05 0 0.0105541887)
(3.33013333e-05 4.85741364e-23 0.0106015409)
(3.33013333e-05 1.01120334e-22 0.0106489641)
(3.33013333e-05 2.42143858e-23 0.0106964585)
(3.33013333e-05 0 0.0107440241)
(3.33013333e-05 0 0.010791661)
(3.33013333e-05 1.76975399e-22 0.0108393693)
(3.33013333e-05 5.22568588e-23 0.0108871492)
(3.33013333e-05 1.52436794e-22 0.0109350008)
(3.33013333e-05 0 0.0109829241)
(3.33013333e-05 7.60026248e-23 0.0110309193)
(3.33013333e-05 0 0.0110789865)
(3.33013333e-05 0 0.0111271258)
(3.33013333e-05 -5.18259478e-23 0.0111753373)
(3.33013333e-05 2.38184862e-23 0.0112236211)
(3.33013333e-05 1.2303163e-22 0.0112719772)
(3.33013333e-05 0 0.0113204059)
(3.33013333e-05 7.52524456e-23 0.0113689073)
(3.33013333e-05 -9.8822082e-23 0.0114174814)
(3.33013333e-05 0 0.0114661283)
(3.33013333e-05 0 0.0115148482)
(3.33013333e-05 4.7139867e-23 0.0115636411)
(3.33013333e-05 0 0.0116125073)
(3.33013333e-05 5.11163134e-23 0.0116614467)
(3.33013333e-05 -5.10459248e-23 0.0117104595)
(3.33013333e-05 0 0.0117595458)
(3.33013333e-05 0 0.0118087057)
(3.33013333e-05 0 0.0118579394)
(3.33013333e-05 0 0.0119072469)
(3.33013333e-05 -5.0695603e-23 0.0119566283)
(3.33013333e-05 0 0.0120060838)
(3.33013333e-05 -5.05562074e-23 0.0120556135)
(3.33013333e-05 7.36712342e-23 0.0121052175)
(3.33013333e-05 0 0.0121548958)
(3.33013333e-05 0 0.0122046487)
(3.33013333e-05 0 0.0122544762)
(3.33013333e-05 0 0.0123043784)
(3.33013333e-05 4.60229946e-23 0.0123543554)
(3.33013333e-05 -4.59540743e-23 0.0124044074)
(3.33013333e-05 -5.00027899e-23 0.0124545345)
(3.33013333e-05 0 0.0125047367)
(3.33013333e-05 -4.57479371e-23 0.0125550142)
(3.33013333e-05 -9.54763804e-23 0.0126053672)
(3.33013333e-05 -4.56110275e-23 0.0126557956)
(3.33013333e-05 -4.55427219e-23 0.0127062997)
(3.33013333e-05 0 0.0127568795)
(3.33013333e-05 -4.54064269e-23 0.0128075352)
(3.33013333e-05 0 0.0128582668)
(3.33013333e-05 7.20233248e-23 0.0129090745)
(3.33013333e-05 0 0.0129599585)
(3.33013333e-05 7.18201071e-23 0.0130109187)
(3.33013333e-05 0 0.0130619554)
(3.33013333e-05 9.41174687e-23 0.0131130686)
(3.33013333e-05 4.493259e-23 0.0131642584)
(3.33013333e-05 9.38481269e-23 0.0132155251)
(3.33013333e-05 0 0.0132668686)
(3.33013333e-05 0 0.0133182891)
(3.33013333e-05 0 0.0133697868)
(3.33013333e-05 0 0.0134213616)
(3.33013333e-05 0 0.0134730139)
(3.33013333e-05 0 0.0135247436)
(3.33013333e-05 0 0.0135765508)
(3.33013333e-05 0 0.0136284358)
(3.33013333e-05 0 0.0136803986)
(3.33013333e-05 0 0.0137324393)
(3.33013333e-05 0 0.013784558)
(3.33013333e-05 0 0.013836755)
(3.33013333e-05 0 0.0138890302)
(3.33013333e-05 0 0.0139413838)
(3.33013333e-05 -6.99195439e-23 0.0139938159)
(3.33013333e-05 0 0.0140463267)
(3.33013333e-05 -4.78542547e-23 0.0140989162)
(3.33013333e-05 0 0.0141515845)
(3.33013333e-05 0 0.0142043319)
(3.33013333e-05 0 0.0142571584)
(3.33013333e-05 0 0.0143100641)
(3.33013333e-05 0 0.0143630491)
(3.33013333e-05 2.16726132e-23 0.0144161136)
(3.33013333e-05 0 0.0144692577)
(3.33013333e-05 0 0.0145224815)
(3.33013333e-05 0 0.0145757851)
(3.33013333e-05 0 0.0146291687)
(3.33013333e-05 4.30216502e-23 0.0146826323)
(3.33013333e-05 0 0.0147361761)
(3.33013333e-05 -1.36913743e-22 0.0147898002)
(3.33013333e-05 -1.11189177e-22 0.0148435048)
(3.33013333e-05 0 0.0148972898)
(3.33013333e-05 -2.13502424e-23 0.0149511555)
(3.33013333e-05 2.13182726e-23 0.0150051021)
(3.33013333e-05 -6.79765746e-23 0.0150591295)
(3.33013333e-05 4.66264694e-23 0.0151132379)
(3.33013333e-05 -2.12226454e-23 0.0151674275)
(3.33013333e-05 0 0.0152216984)
(3.33013333e-05 -4.64357874e-23 0.0152760507)
(3.33013333e-05 0 0.0153304844)
(3.33013333e-05 0 0.0153849998)
(3.33013333e-05 0 0.015439597)
(3.33013333e-05 -4.20653466e-23 0.0154942761)
(3.33013333e-05 0 0.0155490371)
(3.33013333e-05 0 0.0156038803)
(3.33013333e-05 -4.5994178e-23 0.0156588057)
(3.33013333e-05 0 0.0157138135)
(3.33013333e-05 4.17513266e-23 0.0157689038)
(3.33013333e-05 0 0.0158240768)
(3.33013333e-05 0 0.0158793324)
(3.33013333e-05 4.56815625e-23 0.015934671)
(3.33013333e-05 0 0.0159900925)
(3.33013333e-05 0 0.0160455972)
(3.33013333e-05 0 0.016101185)
(3.33013333e-05 4.13156327e-23 0.0161568563)
(3.33013333e-05 0 0.0162126111)
(3.33013333e-05 6.1787973e-23 0.0162684494)
(3.33013333e-05 0 0.0163243715)
(3.33013333e-05 0 0.0163803775)
(3.33013333e-05 0 0.0164364675)
(3.33013333e-05 0 0.0164926416)
(3.33013333e-05 -1.2677098e-22 0.0165488999)
(3.33013333e-05 0 0.0166052426)
(3.33013333e-05 -1.26403907e-22 0.0166616699)
(3.33013333e-05 1.30338282e-22 0.0167181817)
(3.33013333e-05 -1.26037926e-22 0.0167747783)
(3.33013333e-05 4.05792793e-23 0.0168314598)
(3.33013333e-05 0 0.0168882262)
(3.33013333e-05 0 0.0169450779)
(3.33013333e-05 0 0.0170020147)
(3.33013333e-05 4.44542777e-23 0.017059037)
(3.33013333e-05 -8.46702157e-23 0.0171161448)
(3.33013333e-05 -1.6909918e-22 0.0171733382)
(3.33013333e-05 -8.44291428e-23 0.0172306174)
(3.33013333e-05 -4.00956765e-23 0.0172879826)
(3.33013333e-05 0 0.0173454337)
(3.33013333e-05 0 0.017402971)
(3.33013333e-05 0 0.0174605946)
(3.33013333e-05 4.39735676e-23 0.0175183046)
(3.33013333e-05 0 0.0175761012)
(3.33013333e-05 0 0.0176339844)
(3.33013333e-05 0 0.0176919545)
(3.33013333e-05 -1.66706423e-22 0.0177500115)
(3.33013333e-05 -1.66469128e-22 0.0178081556)
(3.33013333e-05 -4.36167947e-23 0.0178663868)
(3.33013333e-05 0 0.0179247055)
(3.33013333e-05 0 0.0179831115)
(3.33013333e-05 3.93220994e-23 0.0180416052)
(3.33013333e-05 -8.26439387e-23 0.0181001865)
(3.33013333e-05 -8.25263494e-23 0.0181588558)
(3.33013333e-05 0 0.018217613)
(3.33013333e-05 0 0.0182764584)
(3.33013333e-05 0 0.018335392)
(3.33013333e-05 0 0.018394414)
(3.33013333e-05 0 0.0184535245)
(3.33013333e-05 0 0.0185127236)
(3.33013333e-05 0 0.0185720116)
(3.33013333e-05 7.74744092e-23 0.0186313884)
(3.33013333e-05 8.14758955e-23 0.0186908543)
(3.33013333e-05 -4.27387932e-23 0.0187504094)
(3.33013333e-05 3.85634394e-23 0.0188100538)
(3.33013333e-05 3.85056832e-23 0.0188697877)
(3.33013333e-05 -4.2565544e-23 0.0189296111)
(3.33013333e-05 3.83904514e-23 0.0189895243)
(3.33013333e-05 0 0.0190495273)
(3.33013333e-05 0 0.0191096203)
(3.33013333e-05 0 0.0191698034)
(3.33013333e-05 8.04395351e-23 0.0192300768)
(3.33013333e-05 0 0.0192904406)
(3.33013333e-05 3.80468007e-23 0.0193508949)
(3.33013333e-05 0 0.0194114399)
(3.33013333e-05 0 0.0194720756)
(3.33013333e-05 -4.19936529e-23 0.0195328023)
(3.33013333e-05 -3.78194139e-23 0.0195936201)
(3.33013333e-05 3.77627791e-23 0.0196545291)
(3.33013333e-05 0 0.0197155295)
(3.33013333e-05 0 0.0197766213)
(3.33013333e-05 0 0.0198378048)
(3.33013333e-05 0 0.01989908)
(3.33013333e-05 0 0.0199604471)
(3.33013333e-05 3.74247479e-23 0.0200219062)
(3.33013333e-05 0 0.0200834576)
(3.33013333e-05 0 0.0201451012)
(3.33013333e-05 0 0.0202068373)
(3.33013333e-05 0 0.0202686659)
(3.33013333e-05 -7.84082651e-23 0.0203305873)
(3.33013333e-05 0 0.0203926016)
(3.33013333e-05 0 0.0204547088)
(3.33013333e-05 1.15053753e-22 0.0205169093)
(3.33013333e-05 7.79642631e-23 0.020579203)
(3.33013333e-05 -1.14721746e-22 0.0206415901)
(3.33013333e-05 0 0.0207040708)
(3.33013333e-05 -3.6757738e-23 0.0207666451)
(3.33013333e-05 -7.75229149e-23 0.0208293134)
(3.33013333e-05 0 0.0208920756)
(3.33013333e-05 7.73032243e-23 0.0209549319)
(3.33013333e-05 4.06555803e-23 0.0210178825)
(3.33013333e-05 0 0.0210809276)
(3.33013333e-05 -3.64287055e-23 0.0211440671)
(3.33013333e-05 -3.63741617e-23 0.0212073014)
(3.33013333e-05 -7.67568884e-23 0.0212706305)
(3.33013333e-05 0 0.0213340546)
(3.33013333e-05 7.65395078e-23 0.0213975738)
(3.33013333e-05 0 0.0214611882)
(3.33013333e-05 0 0.0215248981)
(3.33013333e-05 -3.60485539e-23 0.0215887035)
(3.33013333e-05 0 0.0216526046)
(3.33013333e-05 0 0.0217166016)
(3.33013333e-05 -7.5891231e-23 0.0217806945)
(3.33013333e-05 3.99506328e-23 0.0218448835)
(3.33013333e-05 -3.98969724e-23 0.0219091688)
(3.33013333e-05 0 0.0219735506)
(3.33013333e-05 3.56723733e-23 0.0220380288)
(3.33013333e-05 -1.10974389e-22 0.0221026038)
(3.33013333e-05 0 0.0221672756)
(3.33013333e-05 -3.55123583e-23 0.0222320444)
(3.33013333e-05 -3.95766996e-23 0.0222969104)
(3.33013333e-05 0 0.0223618736)
(3.33013333e-05 0 0.0224269343)
(3.33013333e-05 1.49435496e-22 0.0224920925)
(3.33013333e-05 -7.04945179e-23 0.0225573485)
(3.33013333e-05 0 0.0226227023)
(3.33013333e-05 3.51417661e-23 0.0226881541)
(3.33013333e-05 3.50891438e-23 0.0227537041)
(3.33013333e-05 7.4190719e-23 0.0228193524)
(3.33013333e-05 0 0.0228850992)
(3.33013333e-05 7.39810036e-23 0.0229509445)
(3.33013333e-05 0 0.0230168886)
(3.33013333e-05 7.37719284e-23 0.0230829316)
(3.33013333e-05 3.47750456e-23 0.0231490737)
(3.33013333e-05 -7.35634619e-23 0.023215315)
(3.33013333e-05 0 0.0232816555)
(3.33013333e-05 3.87365731e-23 0.0233480956)
(3.33013333e-05 0 0.0234146354)
(3.33013333e-05 0 0.0234812749)
(3.33013333e-05 -3.44637599e-23 0.0235480144)
(3.33013333e-05 -1.45883659e-22 0.0236148539)
(3.33013333e-05 3.84781419e-23 0.0236817937)
(3.33013333e-05 0 0.0237488339)
(3.33013333e-05 3.4257791e-23 0.0238159747)
(3.33013333e-05 -1.10854496e-22 0.0238832161)
(3.33013333e-05 -3.41552658e-23 0.0239505584)
(3.33013333e-05 3.41041142e-23 0.0240180016)
(3.33013333e-05 0 0.0240855461)
(3.33013333e-05 0 0.0241531918)
(3.33013333e-05 0 0.0242209389)
(3.33013333e-05 -7.19181052e-23 0.0242887877)
(3.33013333e-05 0 0.0243567382)
(3.33013333e-05 0 0.0244247907)
(3.33013333e-05 0 0.0244929452)
(3.33013333e-05 0 0.0245612019)
(3.33013333e-05 0 0.0246295609)
(3.33013333e-05 -3.35968351e-23 0.0246980225)
(3.33013333e-05 7.12105709e-23 0.0247665868)
(3.33013333e-05 0 0.0248352539)
(3.33013333e-05 -7.10097839e-23 0.024904024)
(3.33013333e-05 -3.33960433e-23 0.0249728972)
(3.33013333e-05 -1.74965205e-22 0.0250418737)
(3.33013333e-05 -3.32960992e-23 0.0251109537)
(3.33013333e-05 0 0.0251801373)
(3.33013333e-05 3.31964547e-23 0.0252494246)
(3.33013333e-05 0 0.0253188158)
(3.33013333e-05 0 0.0253883111)
(3.33013333e-05 0 0.0254579106)
(3.33013333e-05 0 0.0255276145)
(3.33013333e-05 0 0.025597423)
(3.33013333e-05 0 0.0256673361)
(3.33013333e-05 0 0.0257373541)
(3.33013333e-05 0 0.0258074771)
(3.33013333e-05 -6.55034357e-23 0.0258777053)
(3.33013333e-05 0 0.0259480387)
(3.33013333e-05 0 0.0260184777)
(3.33013333e-05 -6.52096061e-23 0.0260890223)
(3.33013333e-05 0 0.0261596727)
(3.33013333e-05 0 0.0262304291)
(3.33013333e-05 0 0.0263012916)
(3.33013333e-05 3.24099371e-23 0.0263722603)
(3.33013333e-05 -1.01201737e-22 0.0264433355)
(3.33013333e-05 -6.87434138e-23 0.0265145173)
(3.33013333e-05 -6.86466316e-23 0.0265858058)
(3.33013333e-05 -1.37100007e-22 0.0266572013)
(3.33013333e-05 -6.84535207e-23 0.0267287038)
(3.33013333e-05 3.21198263e-23 0.0268003136)
(3.33013333e-05 6.82609723e-23 0.0268720307)
(3.33013333e-05 0 0.0269438555)
(3.33013333e-05 1.6811375e-22 0.0270157879)
(3.33013333e-05 0 0.0270878282)
(3.33013333e-05 0 0.0271599766)
(3.33013333e-05 0 0.0272322331)
(3.33013333e-05 0 0.0273045981)
(3.33013333e-05 -6.75916064e-23 0.0273770715)
(3.33013333e-05 0 0.0274496537)
(3.33013333e-05 3.16420611e-23 0.0275223447)
(3.33013333e-05 0 0.0275951447)
(3.33013333e-05 0 0.0276680539)
(3.33013333e-05 0 0.0277410724)
(3.33013333e-05 0 0.0278142005)
(3.33013333e-05 -9.83350796e-23 0.0278874382)
(3.33013333e-05 -1.60911613e-22 0.0279607858)
(3.33013333e-05 0 0.0280342433)
(3.33013333e-05 6.66474639e-23 0.028107811)
(3.33013333e-05 0 0.0281814891)
(3.33013333e-05 6.23428113e-23 0.0282552777)
(3.33013333e-05 6.63669717e-23 0.0283291769)
(3.33013333e-05 0 0.028403187)
(3.33013333e-05 -6.61806764e-23 0.028477308)
(3.33013333e-05 0 0.0285515402)
(3.33013333e-05 1.31989871e-22 0.0286258838)
(3.33013333e-05 -3.50098977e-23 0.0287003388)
(3.33013333e-05 0 0.0287749055)
(3.33013333e-05 9.6517293e-23 0.028849584)
(3.33013333e-05 0 0.0289243746)
(3.33013333e-05 0 0.0289992773)
(3.33013333e-05 -1.00220333e-22 0.0290742923)
(3.33013333e-05 0 0.0291494198)
(3.33013333e-05 -9.58275274e-23 0.02922466)
(3.33013333e-05 3.05242217e-23 0.0293000131)
(3.33013333e-05 0 0.0293754791)
(3.33013333e-05 3.45503913e-23 0.0294510584)
(3.33013333e-05 3.03872987e-23 0.0295267509)
(3.33013333e-05 -3.03417916e-23 0.0296025571)
(3.33013333e-05 3.02963568e-23 0.0296784768)
(3.33013333e-05 0 0.0297545105)
(3.33013333e-05 0 0.0298306582)
(3.33013333e-05 0 0.0299069201)
(3.33013333e-05 -9.44633869e-23 0.0299832963)
(3.33013333e-05 6.42579037e-23 0.0300597871)
(3.33013333e-05 -9.41930078e-23 0.0301363926)
(3.33013333e-05 1.24038327e-22 0.0302131131)
(3.33013333e-05 2.9935305e-23 0.0302899485)
(3.33013333e-05 0 0.0303668992)
(3.33013333e-05 0 0.0304439653)
(3.33013333e-05 0 0.030521147)
(3.33013333e-05 9.33867046e-23 0.0305984444)
(3.33013333e-05 0 0.0306758578)
(3.33013333e-05 -3.37848623e-23 0.0307533873)
(3.33013333e-05 0 0.030831033)
(3.33013333e-05 9.28531918e-23 0.0309087952)
(3.33013333e-05 0 0.030986674)
(3.33013333e-05 -9.67051452e-23 0.0310646696)
(3.33013333e-05 0 0.0311427822)
(3.33013333e-05 -1.21724629e-22 0.0312210119)
(3.33013333e-05 0 0.031299359)
(3.33013333e-05 0 0.0313778235)
(3.33013333e-05 -6.26573004e-23 0.0314564058)
(3.33013333e-05 -9.17956969e-23 0.0315351058)
(3.33013333e-05 -9.16643972e-23 0.031613924)
(3.33013333e-05 -2.91385899e-23 0.0316928603)
(3.33013333e-05 -6.23074407e-23 0.031771915)
(3.33013333e-05 0 0.0318510882)
(3.33013333e-05 -9.11411664e-23 0.0319303802)
(3.33013333e-05 3.30819662e-23 0.0320097912)
(3.33013333e-05 0 0.0320893212)
(3.33013333e-05 2.88777612e-23 0.0321689705)
(3.33013333e-05 -1.235731e-22 0.0322487392)
(3.33013333e-05 0 0.0323286276)
(3.33013333e-05 0 0.0324086358)
(3.33013333e-05 9.02330357e-23 0.0324887639)
(3.33013333e-05 2.86621862e-23 0.0325690123)
(3.33013333e-05 0 0.032649381)
(3.33013333e-05 -6.12703323e-23 0.0327298702)
(3.33013333e-05 -6.11847558e-23 0.0328104802)
(3.33013333e-05 0 0.032891211)
(3.33013333e-05 0 0.0329720629)
(3.33013333e-05 3.25231395e-23 0.0330530361)
(3.33013333e-05 0 0.0331341307)
(3.33013333e-05 0 0.0332153469)
(3.33013333e-05 -6.06739205e-23 0.033296685)
(3.33013333e-05 -1.1706093e-22 0.033378145)
(3.33013333e-05 -2.05590028e-22 0.0334597272)
(3.33013333e-05 0 0.0335414317)
(3.33013333e-05 5.62183871e-23 0.0336232588)
(3.33013333e-05 -3.21846185e-23 0.0337052086)
(3.33013333e-05 -1.1621781e-22 0.0337872813)
(3.33013333e-05 5.59662028e-23 0.0338694771)
(3.33013333e-05 -8.79411166e-23 0.0339517962)
(3.33013333e-05 -2.78993566e-23 0.0340342387)
(3.33013333e-05 0 0.0341168048)
(3.33013333e-05 0 0.0341994948)
(3.33013333e-05 2.77742041e-23 0.0342823088)
(3.33013333e-05 0 0.034365247)
(3.33013333e-05 -1.46690476e-22 0.0344483096)
(3.33013333e-05 -5.94167575e-23 0.0345314967)
(3.33013333e-05 -2.76082105e-23 0.0346148087)
(3.33013333e-05 5.92512625e-23 0.0346982455)
(3.33013333e-05 0 0.0347818075)
(3.33013333e-05 -2.74843708e-23 0.0348654948)
(3.33013333e-05 -8.23296327e-23 0.0349493077)
(3.33013333e-05 -2.74021154e-23 0.0350332462)
(3.33013333e-05 -8.6200774e-23 0.0351173106)
(3.33013333e-05 8.60778443e-23 0.0352015011)
(3.33013333e-05 2.72791955e-23 0.0352858178)
(3.33013333e-05 -3.13558689e-23 0.035370261)
(3.33013333e-05 0 0.0354548309)
(3.33013333e-05 8.55880074e-23 0.0355395275)
(3.33013333e-05 0 0.0356243512)
(3.33013333e-05 0 0.0357093022)
(3.33013333e-05 0 0.0357943805)
(3.33013333e-05 -5.81065698e-23 0.0358795864)
(3.33013333e-05 0 0.0359649201)
(3.33013333e-05 -3.10312599e-23 0.0360503818)
(3.33013333e-05 2.68734343e-23 0.0361359716)
(3.33013333e-05 0 0.0362216898)
(3.33013333e-05 -5.77035392e-23 0.0363075366)
(3.33013333e-05 -8.43761851e-23 0.0363935121)
(3.33013333e-05 5.75431648e-23 0.0364796165)
(3.33013333e-05 1.10808813e-22 0.0365658501)
(3.33013333e-05 0 0.036652213)
(3.33013333e-05 0 0.0367387055)
(3.33013333e-05 -2.65531742e-23 0.0368253276)
(3.33013333e-05 5.7144342e-23 0.0369120797)
(3.33013333e-05 0 0.0369989619)
(3.33013333e-05 0 0.0370859743)
(3.33013333e-05 5.27889584e-23 0.0371731173)
(3.33013333e-05 0 0.037260391)
(3.33013333e-05 0 0.0373477955)
(3.33013333e-05 -2.62760793e-23 0.0374353311)
(3.33013333e-05 0 0.037522998)
(3.33013333e-05 -5.23948805e-23 0.0376107964)
(3.33013333e-05 0 0.0376987265)
(3.33013333e-05 0 0.0377867884)
(3.33013333e-05 0 0.0378749824)
(3.33013333e-05 -2.60408705e-23 0.0379633087)
(3.33013333e-05 5.61212735e-23 0.0380517674)
(3.33013333e-05 0 0.0381403588)
(3.33013333e-05 0 0.0382290831)
(3.33013333e-05 -5.17704767e-23 0.0383179404)
(3.33013333e-05 0 0.038406931)
(3.33013333e-05 0 0.0384960551)
(3.33013333e-05 0 0.0385853128)
(3.33013333e-05 0 0.0386747044)
(3.33013333e-05 0 0.03876423)
(3.33013333e-05 2.97710485e-23 0.0388538899)
(3.33013333e-05 1.06577975e-22 0.0389436843)
(3.33013333e-05 -2.55767546e-23 0.0390336134)
(3.33013333e-05 0 0.0391236773)
(3.33013333e-05 2.55002113e-23 0.0392138763)
(3.33013333e-05 0 0.0393042105)
(3.33013333e-05 1.86202304e-22 0.0393946803)
(3.33013333e-05 2.95033443e-23 0.0394852857)
(3.33013333e-05 0 0.039576027)
(3.33013333e-05 0 0.0396669044)
(3.33013333e-05 0 0.0397579181)
(3.33013333e-05 0 0.0398490682)
(3.33013333e-05 0 0.0399403551)
(3.33013333e-05 2.51585828e-23 0.0400317789)
(3.33013333e-05 5.02418185e-23 0.0401233398)
(3.33013333e-05 5.01665819e-23 0.040215038)
(3.33013333e-05 0 0.0403068738)
(3.33013333e-05 0 0.0403988473)
(3.33013333e-05 2.49707731e-23 0.0404909587)
(3.33013333e-05 0 0.0405832082)
(3.33013333e-05 0 0.0406755961)
(3.33013333e-05 0 0.0407681226)
(3.33013333e-05 0 0.0408607878)
(3.33013333e-05 0 0.040953592)
(3.33013333e-05 0 0.0410465354)
(3.33013333e-05 0 0.0411396182)
(3.33013333e-05 0 0.0412328405)
(3.33013333e-05 0 0.0413262027)
(3.33013333e-05 0 0.0414197049)
(3.33013333e-05 0 0.0415133473)
(3.33013333e-05 4.90514565e-23 0.0416071302)
(3.33013333e-05 2.44889999e-23 0.0417010537)
(3.33013333e-05 -2.85698507e-23 0.0417951181)
(3.33013333e-05 0 0.0418893236)
(3.33013333e-05 0 0.0419836703)
(3.33013333e-05 0 0.0420781585)
(3.33013333e-05 0 0.0421727885)
(3.33013333e-05 0 0.0422675603)
(3.33013333e-05 2.42334467e-23 0.0423624743)
(3.33013333e-05 0 0.0424575307)
(3.33013333e-05 7.66002875e-23 0.0425527296)
(3.33013333e-05 0 0.0426480712)
(3.33013333e-05 0 0.0427435559)
(3.33013333e-05 0 0.0428391837)
(3.33013333e-05 2.40165233e-23 0.042934955)
(3.33013333e-05 0 0.0430308699)
(3.33013333e-05 -7.59514613e-23 0.0431269287)
(3.33013333e-05 2.39087925e-23 0.0432231315)
(3.33013333e-05 -2.38729885e-23 0.0433194786)